 Entering Gaussian System, Link 0=g16
 Input=int1e-CObreak.gjf
 Output=int1e-CObreak.log
 Initial command:
 /home/chenh/prog/g16-A03/g16/l1.exe "/scr/g16/Gau-31814.inp" -scrdir="/scr/g16/"
 Entering Link 1 = /home/chenh/prog/g16-A03/g16/l1.exe PID=     31816.
  
 Copyright (c) 1988,1990,1992,1993,1995,1998,2003,2009,2016,
            Gaussian, Inc.  All Rights Reserved.
  
 This is part of the Gaussian(R) 16 program.  It is based on
 the Gaussian(R) 09 system (copyright 2009, Gaussian, Inc.),
 the Gaussian(R) 03 system (copyright 2003, Gaussian, Inc.),
 the Gaussian(R) 98 system (copyright 1998, Gaussian, Inc.),
 the Gaussian(R) 94 system (copyright 1995, Gaussian, Inc.),
 the Gaussian 92(TM) system (copyright 1992, Gaussian, Inc.),
 the Gaussian 90(TM) system (copyright 1990, Gaussian, Inc.),
 the Gaussian 88(TM) system (copyright 1988, Gaussian, Inc.),
 the Gaussian 86(TM) system (copyright 1986, Carnegie Mellon
 University), and the Gaussian 82(TM) system (copyright 1983,
 Carnegie Mellon University). Gaussian is a federally registered
 trademark of Gaussian, Inc.
  
 This software contains proprietary and confidential information,
 including trade secrets, belonging to Gaussian, Inc.
  
 This software is provided under written license and may be
 used, copied, transmitted, or stored only in accord with that
 written license.
  
 The following legend is applicable only to US Government
 contracts under FAR:
  
                    RESTRICTED RIGHTS LEGEND
  
 Use, reproduction and disclosure by the US Government is
 subject to restrictions as set forth in subparagraphs (a)
 and (c) of the Commercial Computer Software - Restricted
 Rights clause in FAR 52.227-19.
  
 Gaussian, Inc.
 340 Quinnipiac St., Bldg. 40, Wallingford CT 06492
  
  
 ---------------------------------------------------------------
 Warning -- This program may not be used in any manner that
 competes with the business of Gaussian, Inc. or will provide
 assistance to any competitor of Gaussian, Inc.  The licensee
 of this program is prohibited from giving any competitor of
 Gaussian, Inc. access to this program.  By using this program,
 the user acknowledges that Gaussian, Inc. is engaged in the
 business of creating and licensing software in the field of
 computational chemistry and represents and warrants to the
 licensee that it is not a competitor of Gaussian, Inc. and that
 it will not use this program in any manner prohibited above.
 ---------------------------------------------------------------
  

 Cite this work as:
 Gaussian 16, Revision A.03,
 M. J. Frisch, G. W. Trucks, H. B. Schlegel, G. E. Scuseria, 
 M. A. Robb, J. R. Cheeseman, G. Scalmani, V. Barone, 
 G. A. Petersson, H. Nakatsuji, X. Li, M. Caricato, A. V. Marenich, 
 J. Bloino, B. G. Janesko, R. Gomperts, B. Mennucci, H. P. Hratchian, 
 J. V. Ortiz, A. F. Izmaylov, J. L. Sonnenberg, D. Williams-Young, 
 F. Ding, F. Lipparini, F. Egidi, J. Goings, B. Peng, A. Petrone, 
 T. Henderson, D. Ranasinghe, V. G. Zakrzewski, J. Gao, N. Rega, 
 G. Zheng, W. Liang, M. Hada, M. Ehara, K. Toyota, R. Fukuda, 
 J. Hasegawa, M. Ishida, T. Nakajima, Y. Honda, O. Kitao, H. Nakai, 
 T. Vreven, K. Throssell, J. A. Montgomery, Jr., J. E. Peralta, 
 F. Ogliaro, M. J. Bearpark, J. J. Heyd, E. N. Brothers, K. N. Kudin, 
 V. N. Staroverov, T. A. Keith, R. Kobayashi, J. Normand, 
 K. Raghavachari, A. P. Rendell, J. C. Burant, S. S. Iyengar, 
 J. Tomasi, M. Cossi, J. M. Millam, M. Klene, C. Adamo, R. Cammi, 
 J. W. Ochterski, R. L. Martin, K. Morokuma, O. Farkas, 
 J. B. Foresman, and D. J. Fox, Gaussian, Inc., Wallingford CT, 2016.
 
 ******************************************
 Gaussian 16:  ES64L-G16RevA.03 25-Dec-2016
                12-Jan-2026 
 ******************************************
 %chk=int1e-CObreak.chk
 %mem=5000MB
 %nprocshared=64
 Will use up to   64 processors via shared memory.
 -----------------------------
 #p scan wb97xd nosymm def2svp
 -----------------------------
 1/38=1,60=1,172=1/1,8;
 2/12=2,15=1,17=6,18=5,29=3,40=1/2;
 3/5=43,7=101,11=2,25=1,30=1,74=-58/1,2,3;
 4//1;
 5/5=2,38=5/2;
 6/7=2,8=2,9=2,10=2,18=1,28=1/1;
 1/60=1/8(1);
 99/9=1/99;
 2/15=1,29=3/2;
 3/5=43,7=101,11=2,25=1,30=1,74=-58/1,2,3;
 4/5=5,16=3,69=1/1;
 5/5=2,38=5/2;
 1/60=1/8(-4);
 99/9=1/99;
 Leave Link    1 at Mon Jan 12 17:45:05 2026, MaxMem=   655360000 cpu:               3.7 elap:               0.1
 (Enter /home/chenh/prog/g16-A03/g16/l101.exe)
 -------------
 int1e-CObreak
 -------------
 Symbolic Z-matrix:
 Charge = -1 Multiplicity = 2
 C
 C                    1    B1
 C                    2    B2       1    A1
 C                    3    B3       2    A2       1    D1       0
 C                    4    B4       3    A3       2    D2       0
 C                    1    B5       2    A4       3    D3       0
 H                    1    B6       2    A5       3    D4       0
 H                    2    B7       1    A6       6    D5       0
 H                    4    B8       3    A7       2    D6       0
 H                    5    B9       4    A8       3    D7       0
 H                    6    B10      1    A9       2    D8       0
 S                    3    B11      2    A10      1    D9       0
 O                    12   B12      3    A11      2    D10      0
 O                    12   B13      3    A12      2    D11      0
 C                    12   B14      3    A13      2    D12      0
 C                    15   B15      12   A14      3    D13      0
 C                    15   B16      12   A15      3    D14      0
 C                    16   B17      15   A16      12   D15      0
 H                    16   B18      15   A17      12   D16      0
 C                    17   B19      15   A18      12   D17      0
 H                    17   B20      15   A19      12   D18      0
 C                    20   B21      17   A20      15   D19      0
 H                    18   B22      16   A21      15   D20      0
 H                    20   B23      17   A22      15   D21      0
 O                    22   B24      20   A23      17   D22      0
 C                    25   B25      22   A24      20   D23      0
 C                    26   B26      25   A25      22   D24      0
 C                    26   B27      25   A26      22   D25      0
 C                    27   B28      26   A27      25   D26      0
 H                    27   B29      26   A28      25   D27      0
 C                    28   B30      26   A29      25   D28      0
 H                    28   B31      26   A30      25   D29      0
 C                    31   B32      28   A31      26   D30      0
 H                    29   B33      27   A32      26   D31      0
 H                    31   B34      28   A33      26   D32      0
 H                    33   B35      31   A34      28   D33      0
       Variables:
  B1                    1.3937                   
  B2                    1.40012                  
  B3                    1.40027                  
  B4                    1.39364                  
  B5                    1.39911                  
  B6                    1.09499                  
  B7                    1.09248                  
  B8                    1.0925                   
  B9                    1.09498                  
  B10                   1.09446                  
  B11                   1.79316                  
  B12                   1.47493                  
  B13                   1.47485                  
  B14                   1.70329                  
  B15                   1.44045                  
  B16                   1.4405                   
  B17                   1.37717                  
  B18                   1.09258                  
  B19                   1.37717                  
  B20                   1.09258                  
  B21                   1.41457                  
  B22                   1.09489                  
  B23                   1.09488                  
  B24                   1.40355Scan 20    0.05   
  B25                   1.35246                  
  B26                   1.40476                  
  B27                   1.40241                  
  B28                   1.39187                  
  B29                   1.0931                   
  B30                   1.39596                  
  B31                   1.09163                  
  B32                   1.39599                  
  B33                   1.09503                  
  B34                   1.0948                   
  B35                   1.0938                   
  A1                  119.6855                   
  A2                  120.25346                  
  A3                  119.68237                  
  A4                  120.36342                  
  A5                  119.71962                  
  A6                  121.72657                  
  A7                  118.61893                  
  A8                  119.72389                  
  A9                  120.17632                  
  A10                 119.71371                  
  A11                 104.68933                  
  A12                 104.67702                  
  A13                 107.04041                  
  A14                 119.90269                  
  A15                 119.85239                  
  A16                 120.20781                  
  A17                 118.69819                  
  A18                 120.20777                  
  A19                 118.70099                  
  A20                 120.36336                  
  A21                 120.74521                  
  A22                 120.72675                  
  A23                 119.86868                  
  A24                 118.46182                  
  A25                 116.71276                  
  A26                 123.80516                  
  A27                 120.27215                  
  A28                 118.01033                  
  A29                 119.50362                  
  A30                 119.30268                  
  A31                 121.27419                  
  A32                 119.3844                   
  A33                 118.84416                  
  A34                 120.55845                  
  D1                   -0.41265                  
  D2                    0.43048                  
  D3                    0.05972                  
  D4                  179.66983                  
  D5                 -178.92512                  
  D6                 -178.59034                  
  D7                 -179.70773                  
  D8                  179.99141                  
  D9                  172.8308                   
  D10                  29.14725                  
  D11                 156.55403                  
  D12                 -87.16866                  
  D13                  82.51209                  
  D14                 -82.64288                  
  D15                -166.03695                  
  D16                  15.662                    
  D17                 166.03084                  
  D18                 -15.71027                  
  D19                  -0.68238                  
  D20                -178.36857                  
  D21                 178.35115                  
  D22                 179.05498                  
  D23                 -88.58185                  
  D24                 179.6639                   
  D25                  -0.34063                  
  D26                -179.98031                  
  D27                  -0.00027                  
  D28                 179.98327                  
  D29                   0.00652                  
  D30                   0.00431                  
  D31                 179.98518                  
  D32                -179.98664                  
  D33                -179.9753                   
 
 ITRead=  0  0  0  0  0  0  0  0  0  0  0  0  0  0  0  0  0  0  0  0
 ITRead=  0  0  0  0  0  0  0  0  0  0  0  0  0  0  0  0
 MicOpt= -1 -1 -1 -1 -1 -1 -1 -1 -1 -1 -1 -1 -1 -1 -1 -1 -1 -1 -1 -1
 MicOpt= -1 -1 -1 -1 -1 -1 -1 -1 -1 -1 -1 -1 -1 -1 -1 -1
 NAtoms=     36 NQM=       36 NQMF=       0 NMMI=      0 NMMIF=      0
                NMic=       0 NMicF=      0.
                    Isotopes and Nuclear Properties:
 (Nuclear quadrupole moments (NQMom) in fm**2, nuclear magnetic moments (NMagM)
  in nuclear magnetons)

  Atom         1           2           3           4           5           6           7           8           9          10
 IAtWgt=          12          12          12          12          12          12           1           1           1           1
 AtmWgt=  12.0000000  12.0000000  12.0000000  12.0000000  12.0000000  12.0000000   1.0078250   1.0078250   1.0078250   1.0078250
 NucSpn=           0           0           0           0           0           0           1           1           1           1
 AtZEff=  -0.0000000  -0.0000000  -0.0000000  -0.0000000  -0.0000000  -0.0000000  -0.0000000  -0.0000000  -0.0000000  -0.0000000
 NQMom=    0.0000000   0.0000000   0.0000000   0.0000000   0.0000000   0.0000000   0.0000000   0.0000000   0.0000000   0.0000000
 NMagM=    0.0000000   0.0000000   0.0000000   0.0000000   0.0000000   0.0000000   2.7928460   2.7928460   2.7928460   2.7928460
 AtZNuc=   6.0000000   6.0000000   6.0000000   6.0000000   6.0000000   6.0000000   1.0000000   1.0000000   1.0000000   1.0000000

  Atom        11          12          13          14          15          16          17          18          19          20
 IAtWgt=           1          32          16          16          12          12          12          12           1          12
 AtmWgt=   1.0078250  31.9720718  15.9949146  15.9949146  12.0000000  12.0000000  12.0000000  12.0000000   1.0078250  12.0000000
 NucSpn=           1           0           0           0           0           0           0           0           1           0
 AtZEff=  -0.0000000  -0.0000000  -0.0000000  -0.0000000  -0.0000000  -0.0000000  -0.0000000  -0.0000000  -0.0000000  -0.0000000
 NQMom=    0.0000000   0.0000000   0.0000000   0.0000000   0.0000000   0.0000000   0.0000000   0.0000000   0.0000000   0.0000000
 NMagM=    2.7928460   0.0000000   0.0000000   0.0000000   0.0000000   0.0000000   0.0000000   0.0000000   2.7928460   0.0000000
 AtZNuc=   1.0000000  16.0000000   8.0000000   8.0000000   6.0000000   6.0000000   6.0000000   6.0000000   1.0000000   6.0000000

  Atom        21          22          23          24          25          26          27          28          29          30
 IAtWgt=           1          12           1           1          16          12          12          12          12           1
 AtmWgt=   1.0078250  12.0000000   1.0078250   1.0078250  15.9949146  12.0000000  12.0000000  12.0000000  12.0000000   1.0078250
 NucSpn=           1           0           1           1           0           0           0           0           0           1
 AtZEff=  -0.0000000  -0.0000000  -0.0000000  -0.0000000  -0.0000000  -0.0000000  -0.0000000  -0.0000000  -0.0000000  -0.0000000
 NQMom=    0.0000000   0.0000000   0.0000000   0.0000000   0.0000000   0.0000000   0.0000000   0.0000000   0.0000000   0.0000000
 NMagM=    2.7928460   0.0000000   2.7928460   2.7928460   0.0000000   0.0000000   0.0000000   0.0000000   0.0000000   2.7928460
 AtZNuc=   1.0000000   6.0000000   1.0000000   1.0000000   8.0000000   6.0000000   6.0000000   6.0000000   6.0000000   1.0000000

  Atom        31          32          33          34          35          36
 IAtWgt=          12           1          12           1           1           1
 AtmWgt=  12.0000000   1.0078250  12.0000000   1.0078250   1.0078250   1.0078250
 NucSpn=           0           1           0           1           1           1
 AtZEff=  -0.0000000  -0.0000000  -0.0000000  -0.0000000  -0.0000000  -0.0000000
 NQMom=    0.0000000   0.0000000   0.0000000   0.0000000   0.0000000   0.0000000
 NMagM=    0.0000000   2.7928460   0.0000000   2.7928460   2.7928460   2.7928460
 AtZNuc=   6.0000000   1.0000000   6.0000000   1.0000000   1.0000000   1.0000000
 Leave Link  101 at Mon Jan 12 17:45:05 2026, MaxMem=   655360000 cpu:              11.8 elap:               0.2
 (Enter /home/chenh/prog/g16-A03/g16/l108.exe)
 Scan the potential surface.
 Variable   Value     No. Steps Step-Size
 -------- ----------- --------- ---------
    24       1.403550      20      0.0500
 A total of     21 points will be computed.
 Leave Link  108 at Mon Jan 12 17:45:05 2026, MaxMem=   655360000 cpu:               3.2 elap:               0.1
 (Enter /home/chenh/prog/g16-A03/g16/l202.exe)
 ---------------------------------------------------------------------------------------------------
                            Z-MATRIX (ANGSTROMS AND DEGREES)
   CD    Cent   Atom    N1       Length/X        N2       Alpha/Y        N3        Beta/Z          J
 ---------------------------------------------------------------------------------------------------
      1      1  C 
      2      2  C        1   1.393700(     1)
      3      3  C        2   1.400115(     2)      1  119.686(    36)
      4      4  C        3   1.400265(     3)      2  120.253(    37)      1   -0.413(    70)      0
      5      5  C        4   1.393644(     4)      3  119.682(    38)      2    0.430(    71)      0
      6      6  C        1   1.399107(     5)      2  120.363(    39)      3    0.060(    72)      0
      7      7  H        1   1.094993(     6)      2  119.720(    40)      3  179.670(    73)      0
      8      8  H        2   1.092478(     7)      1  121.727(    41)      6 -178.925(    74)      0
      9      9  H        4   1.092505(     8)      3  118.619(    42)      2 -178.590(    75)      0
     10     10  H        5   1.094984(     9)      4  119.724(    43)      3 -179.708(    76)      0
     11     11  H        6   1.094460(    10)      1  120.176(    44)      2  179.991(    77)      0
     12     12  S        3   1.793158(    11)      2  119.714(    45)      1  172.831(    78)      0
     13     13  O       12   1.474929(    12)      3  104.689(    46)      2   29.147(    79)      0
     14     14  O       12   1.474846(    13)      3  104.677(    47)      2  156.554(    80)      0
     15     15  C       12   1.703295(    14)      3  107.040(    48)      2  -87.169(    81)      0
     16     16  C       15   1.440452(    15)     12  119.903(    49)      3   82.512(    82)      0
     17     17  C       15   1.440501(    16)     12  119.852(    50)      3  -82.643(    83)      0
     18     18  C       16   1.377166(    17)     15  120.208(    51)     12 -166.037(    84)      0
     19     19  H       16   1.092577(    18)     15  118.698(    52)     12   15.662(    85)      0
     20     20  C       17   1.377173(    19)     15  120.208(    53)     12  166.031(    86)      0
     21     21  H       17   1.092585(    20)     15  118.701(    54)     12  -15.710(    87)      0
     22     22  C       20   1.414566(    21)     17  120.363(    55)     15   -0.682(    88)      0
     23     23  H       18   1.094888(    22)     16  120.745(    56)     15 -178.369(    89)      0
     24     24  H       20   1.094884(    23)     17  120.727(    57)     15  178.351(    90)      0
     25     25  O       22   1.403550(    24)     20  119.869(    58)     17  179.055(    91)      0
     26     26  C       25   1.352462(    25)     22  118.462(    59)     20  -88.582(    92)      0
     27     27  C       26   1.404759(    26)     25  116.713(    60)     22  179.664(    93)      0
     28     28  C       26   1.402408(    27)     25  123.805(    61)     22   -0.341(    94)      0
     29     29  C       27   1.391872(    28)     26  120.272(    62)     25 -179.980(    95)      0
     30     30  H       27   1.093100(    29)     26  118.010(    63)     25   -0.000(    96)      0
     31     31  C       28   1.395959(    30)     26  119.504(    64)     25  179.983(    97)      0
     32     32  H       28   1.091628(    31)     26  119.303(    65)     25    0.007(    98)      0
     33     33  C       31   1.395994(    32)     28  121.274(    66)     26    0.004(    99)      0
     34     34  H       29   1.095027(    33)     27  119.384(    67)     26  179.985(   100)      0
     35     35  H       31   1.094796(    34)     28  118.844(    68)     26 -179.987(   101)      0
     36     36  H       33   1.093802(    35)     31  120.558(    69)     28 -179.975(   102)      0
 ---------------------------------------------------------------------------------------------------
                         Z-Matrix orientation:                         
 ---------------------------------------------------------------------
 Center     Atomic      Atomic             Coordinates (Angstroms)
 Number     Number       Type             X           Y           Z
 ---------------------------------------------------------------------
      1          6           0        0.000000    0.000000    0.000000
      2          6           0        0.000000    0.000000    1.393700
      3          6           0        1.216360    0.000000    2.087092
      4          6           0        2.428263   -0.008711    1.385695
      5          6           0        2.419086   -0.008301   -0.007919
      6          6           0        1.207200   -0.001258   -0.707225
      7          1           0       -0.950944   -0.005480   -0.542849
      8          1           0       -0.929080   -0.016463    1.968197
      9          1           0        3.361336   -0.032080    1.953494
     10          1           0        3.366329   -0.019961   -0.557087
     11          1           0        1.203626   -0.001396   -1.801679
     12         16           0        1.223273    0.194361    3.869672
     13          8           0       -0.061898   -0.377480    4.313234
     14          8           0        2.496041   -0.409336    4.306459
     15          6           0        1.245438    1.867252    4.189290
     16          6           0        0.016839    2.618893    4.167283
     17          6           0        2.493733    2.585683    4.163618
     18          6           0        0.047121    3.995395    4.137093
     19          1           0       -0.930835    2.076371    4.203453
     20          6           0        2.500303    3.962504    4.133180
     21          1           0        3.426641    2.018015    4.197936
     22          6           0        1.283198    4.683071    4.112308
     23          1           0       -0.881073    4.576031    4.146983
     24          1           0        3.443933    4.517734    4.140594
     25          8           0        1.301845    6.086455    4.101409
     26          6           0        1.325029    6.739964    5.285277
     27          6           0        1.350516    8.143459    5.231423
     28          6           0        1.324696    6.096974    6.531597
     29          6           0        1.375752    8.890343    6.405662
     30          1           0        1.350126    8.619525    4.247437
     31          6           0        1.350144    6.861243    7.699478
     32          1           0        1.304887    5.006203    6.570030
     33          6           0        1.375900    8.256201    7.652284
     34          1           0        1.395687    9.983602    6.346732
     35          1           0        1.349842    6.348124    8.666579
     36          1           0        1.396101    8.843558    8.574784
 ---------------------------------------------------------------------
                    Distance matrix (angstroms):
                    1          2          3          4          5
     1  C    0.000000
     2  C    1.393700   0.000000
     3  C    2.415675   1.400115   0.000000
     4  C    2.795834   2.428292   1.400265   0.000000
     5  C    2.419114   2.795816   2.415717   1.393644   0.000000
     6  C    1.399107   2.423060   2.794332   2.423090   1.399195
     7  H    1.094993   2.157440   3.407906   3.890801   3.412222
     8  H    2.176525   1.092478   2.148795   3.407509   3.887843
     9  H    3.887897   3.407782   2.149372   1.092505   2.176130
    10  H    3.412171   3.890776   3.407998   2.157428   1.094984
    11  H    2.166740   3.414552   3.888791   3.414548   2.166787
    12  S    4.063069   2.768503   1.793158   2.768281   4.062850
    13  O    4.330163   2.944487   2.594638   3.861008   4.996393
    14  O    4.994333   3.857711   2.594365   2.948890   4.333659
    15  C    4.752673   3.585118   2.811888   3.574697   4.744652
    16  C    4.921903   3.814662   3.553118   4.522886   5.486825
    17  C    5.499107   4.536178   3.553787   3.801582   4.912845
    18  C    5.751603   4.846814   4.640345   5.410443   6.231928
    19  H    4.779831   3.615588   3.660703   4.854984   5.770917
    20  C    6.247890   5.427495   4.640736   4.829536   5.737821
    21  H    5.782467   4.866004   3.662430   3.607365   4.776018
    22  C    6.363083   5.564942   5.102658   5.546027   6.346297
    23  H    6.238093   5.412662   5.438973   6.292557   7.012158
    24  H    7.029588   6.309993   5.439565   5.395346   6.224585
    25  O    7.453945   6.787593   6.411686   6.767198   7.435110
    26  C    8.667005   7.894757   7.461053   7.872006   8.646038
    27  C    9.772799   9.103182   8.730449   9.077942   9.749038
    28  C    9.032700   8.082443   7.545757   8.060866   9.013176
    29  C   11.043704  10.298090   9.885021  10.271368  11.018549
    30  H    9.703596   9.179480   8.887136   9.154147   9.679365
    31  C   10.401034   9.416070   8.865294   9.392681  10.379655
    32  H    8.362422   7.318414   6.720613   7.299909   8.346023
    33  C   11.340874  10.451212   9.957996  10.425276  11.316755
    34  H   11.912231  11.231775  10.855828  11.203768  11.885582
    35  H   10.827297   9.747591   9.143640   9.725411  10.807143
    36  H   12.396957  11.477177  10.969548  11.450373  12.371932
                    6          7          8          9         10
     6  C    0.000000
     7  H    2.164398   0.000000
     8  H    3.423712   2.511166   0.000000
     9  H    3.423547   4.982790   4.290469   0.000000
    10  H    2.164423   4.317320   4.982731   2.510616   0.000000
    11  H    1.094460   2.495363   4.331353   4.331048   2.495323
    12  S    4.581103   4.923159   2.879701   2.879987   4.922887
    13  O    5.192029   4.950791   2.526170   4.172075   5.966623
    14  O    5.192751   5.963270   4.165725   2.535251   4.956117
    15  C    5.241055   5.542956   3.634579   3.617081   5.530628
    16  C    5.660651   5.478073   3.560315   4.807720   6.364142
    17  C    5.663263   6.382066   4.827700   3.534129   5.462221
    18  C    6.386426   6.237387   4.663913   5.654439   7.012528
    19  H    5.744779   5.182846   3.062079   5.284942   6.747071
    20  C    6.388509   7.037134   5.681549   4.631319   6.213584
    21  H    5.750130   6.762605   5.299353   3.040506   5.173706
    22  C    6.721355   6.974553   5.619342   5.586751   6.947027
    23  H    6.991122   6.556649   5.083346   6.636574   7.828910
    24  H    6.994684   7.855510   6.663444   5.048865   6.531837
    25  O    7.758361   7.984727   6.839096   6.803786   7.953112
    26  C    9.020423   9.200441   7.857056   7.817154   9.164972
    27  C   10.080897  10.249104   9.079071   9.034802  10.208417
    28  C    9.465874   9.615938   7.954762   7.916579   9.583037
    29  C   11.387806  11.525232  10.214428  10.167299  11.481976
    30  H    9.944194  10.130769   9.217917   9.173735  10.089065
    31  C   10.852972  10.971912   9.238251   9.196691  10.935576
    32  H    8.834175   8.988815   7.169006   7.136223   8.961454
    33  C   11.751404  11.867173  10.298483  10.252501  11.825838
    34  H   12.226662  12.359400  11.161425  11.112074  12.313302
    35  H   11.322685  11.422586   9.516816   9.477269  11.388360
    36  H   12.822720  12.920733  11.293956  11.246359  12.877688
                   11         12         13         14         15
    11  H    0.000000
    12  S    5.674762   0.000000
    13  O    6.255809   1.474929   0.000000
    14  O    6.256684   1.474846   2.558147   0.000000
    15  C    6.275771   1.703295   2.600637   2.600113   0.000000
    16  C    6.625925   2.724410   3.000958   3.916118   1.440452
    17  C    6.628886   2.723765   3.915862   2.998424   1.440501
    18  C    7.251266   3.987820   4.377778   5.042573   2.442883
    19  H    6.703330   2.879853   2.605473   4.234717   2.186343
    20  C    7.253718   3.987374   5.043090   4.375275   2.442932
    21  H    6.709337   2.878942   4.233391   2.601889   2.186424
    22  C    7.544919   4.495663   5.240118   5.238444   2.817124
    23  H    7.790082   4.868696   5.023540   6.023638   3.444027
    24  H    7.794364   4.867883   6.023601   5.020162   3.443952
    25  O    8.480450   5.897173   6.609623   6.607832   4.220495
    26  C    9.781902   6.697702   7.316177   7.310393   4.995082
    27  C   10.762191   8.065898   8.685872   8.678599   6.363006
    28  C   10.327064   6.475876   6.983003   6.975339   4.835621
    29  C   12.101780   9.059503   9.609247   9.599257   7.365669
    30  H   10.532499   8.434583   9.107373   9.101480   6.753334
    31  C   11.721316   7.689657   8.115394   8.104750   6.105106
    32  H    9.755604   5.518371   5.995437   5.989212   3.940110
    33  C   12.553685   8.906442   9.367869   9.356324   7.268288
    34  H   12.889285  10.099247  10.658878  10.648317   8.399539
    35  H   12.244273   7.803534   8.135009   8.123281   6.335237
    36  H   13.636028   9.847668  10.262266  10.249123   8.241608
                   16         17         18         19         20
    16  C    0.000000
    17  C    2.477119   0.000000
    18  C    1.377166   2.823810   0.000000
    19  H    1.092577   3.462464   2.154867   0.000000
    20  C    2.823836   1.377173   2.453406   3.916011   0.000000
    21  H    3.462476   1.092585   3.915979   4.357870   2.154839
    22  C    2.422296   2.422202   1.414709   3.421277   1.414566
    23  H    2.153381   3.918045   1.094888   2.500792   3.436613
    24  H    3.918071   2.153190   3.436740   5.010269   1.094884
    25  O    3.698590   3.698631   2.438881   4.590865   2.438950
    26  C    4.465927   4.458928   3.237906   5.292293   3.228448
    27  C    5.782034   5.773735   4.483618   6.562837   4.473089
    28  C    4.404261   4.393533   3.432562   5.164583   3.419125
    29  C    6.796181   6.784200   5.556274   7.523316   5.541875
    30  H    6.147493   6.141833   4.805474   6.929472   4.798312
    31  C    5.679053   5.664849   4.754108   6.349808   4.737513
    32  H    3.623743   3.614289   2.919399   4.379847   2.908017
    33  C    6.765466   6.750935   5.681258   7.443505   5.664293
    34  H    7.803215   7.791078   6.523784   8.516493   6.509501
    35  H    5.993974   5.978387   5.267700   6.585504   5.250377
    36  H    7.750799   7.734609   6.709511   8.385582   6.691173
                   21         22         23         24         25
    21  H    0.000000
    22  C    3.421140   0.000000
    23  H    5.010234   2.167194   0.000000
    24  H    2.500436   2.167236   4.325404   0.000000
    25  O    4.590891   1.403550   2.654919   2.655365   0.000000
    26  C    5.281655   2.368209   3.293207   3.276944   1.352462
    27  C    6.549767   3.637476   4.345405   4.326452   2.347459
    28  C    5.148014   2.802464   3.586791   3.563995   2.430318
    29  C    7.503938   4.792617   5.367326   5.341125   3.629990
    30  H    6.920570   3.939341   4.619328   4.606532   2.537735
    31  C    6.326886   4.197226   4.777107   4.747804   3.680859
    32  H    4.365539   2.478969   3.291600   3.273573   2.694632
    33  C    7.419772   5.030635   5.561000   5.530359   4.161970
    34  H    8.496627   5.753341   6.266128   6.240038   4.498670
    35  H    6.559856   4.849560   5.342664   5.312259   4.572915
    36  H    8.358704   6.102139   6.557648   6.524448   5.255624
                   26         27         28         29         30
    26  C    0.000000
    27  C    1.404759   0.000000
    28  C    1.402408   2.424709   0.000000
    29  C    2.425276   1.391872   2.796672   0.000000
    30  H    2.147205   1.093100   3.403130   2.175301   0.000000
    31  C    2.417375   2.781253   1.395959   2.406629   3.874034
    32  H    2.157991   3.411206   1.091628   3.888262   4.295647
    33  C    2.811456   2.423618   2.433274   1.398644   3.424274
    34  H    3.413629   2.152227   3.891669   1.095027   2.503961
    35  H    3.404021   3.876019   2.149851   3.402249   4.968710
    36  H    3.905255   3.416179   3.423951   2.169723   4.333387
                   31         32         33         34         35
    31  C    0.000000
    32  H    2.172297   0.000000
    33  C    1.395994   3.426194   0.000000
    34  H    3.403104   4.983233   2.165357   0.000000
    35  H    1.094796   2.489637   2.161072   4.312829   0.000000
    36  H    2.167452   4.330434   1.093802   2.502782   2.497550
                   36
    36  H    0.000000
 Symmetry turned off by external request.
 Stoichiometry    C18H14O3S(1-,2)
 Framework group  C1[X(C18H14O3S)]
 Deg. of freedom   102
 Full point group                 C1      NOp   1
 Rotational constants (GHZ):           0.6661680           0.1142884           0.1072139
 Leave Link  202 at Mon Jan 12 17:45:06 2026, MaxMem=   655360000 cpu:               1.9 elap:               0.1
 (Enter /home/chenh/prog/g16-A03/g16/l301.exe)
 Standard basis: def2SVP (5D, 7F)
 Ernie: Thresh=  0.10000D-02 Tol=  0.10000D-05 Strict=F.
   382 basis functions,   660 primitive gaussians,   404 cartesian basis functions
    82 alpha electrons       81 beta electrons
       nuclear repulsion energy      1792.9206317376 Hartrees.
 IExCor= 4639 DFT=T Ex+Corr=wB97XD ExCW=0 ScaHFX=  1.000000
 ScaDFX=  1.000000  1.000000  1.000000  1.000000 ScalE2=  1.000000  1.000000
 IRadAn=      5 IRanWt=     -1 IRanGd=            0 ICorTp=0 IEmpDi=121
 HFx  wShort=  0.000000 wLong=  0.200000 cFull=  0.222036 cShort=  0.000000 cLong=  0.777964
 DFx  wShort=  0.000000 wLong=  0.200000 cFull=  0.000000 cShort=  0.000000 cLong=  1.000000
 NAtoms=   36 NActive=   36 NUniq=   36 SFac= 1.00D+00 NAtFMM=   60 NAOKFM=F Big=F
 Integral buffers will be    131072 words long.
 Raffenetti 2 integral format.
 Two-electron integral symmetry is turned off.
 R6Disp:  Grimme-D2 Dispersion energy=       -0.0235938830 Hartrees.
 Nuclear repulsion after empirical dispersion term =     1792.8970378546 Hartrees.
 Leave Link  301 at Mon Jan 12 17:45:06 2026, MaxMem=   655360000 cpu:               5.9 elap:               0.1
 (Enter /home/chenh/prog/g16-A03/g16/l302.exe)
 NPDir=0 NMtPBC=     1 NCelOv=     1 NCel=       1 NClECP=     1 NCelD=      1
         NCelK=      1 NCelE2=     1 NClLst=     1 CellRange=     0.0.
 One-electron integrals computed using PRISM.
   1 Symmetry operations used in ECPInt.
 ECPInt:  NShTT=   15576 NPrTT=   58308 LenC2=   13264 LenP2D=   33668.
 LDataN:  DoStor=T MaxTD1= 4 Len=   56
 Number of processors reduced to  42 by ecpmxn.
 NBasis=   382 RedAO= T EigKep=  2.53D-04  NBF=   382
 NBsUse=   382 1.00D-06 EigRej= -1.00D+00 NBFU=   382
 Precomputing XC quadrature grid using
 IXCGrd= 4 IRadAn=           5 IRanWt=          -1 IRanGd=           0 AccXCQ= 0.00D+00.
 Generated NRdTot=       0 NPtTot=           0 NUsed=           0 NTot=          32
 NSgBfM=   398   398   398   398   398 MxSgAt=    36 MxSgA2=    36.
 Leave Link  302 at Mon Jan 12 17:45:07 2026, MaxMem=   655360000 cpu:              36.7 elap:               0.6
 (Enter /home/chenh/prog/g16-A03/g16/l303.exe)
 DipDrv:  MaxL=1.
 Leave Link  303 at Mon Jan 12 17:45:08 2026, MaxMem=   655360000 cpu:               6.1 elap:               0.1
 (Enter /home/chenh/prog/g16-A03/g16/l401.exe)
 ExpMin= 1.22D-01 ExpMax= 9.18D+03 ExpMxC= 1.38D+03 IAcc=3 IRadAn=         5 AccDes= 0.00D+00
 Harris functional with IExCor= 4639 and IRadAn=       5 diagonalized for initial guess.
 HarFok:  IExCor= 4639 AccDes= 0.00D+00 IRadAn=         5 IDoV= 1 UseB2=F ITyADJ=14
 ICtDFT=  3500011 ScaDFX=  1.000000  1.000000  1.000000  1.000000
 FoFCou: FMM=F IPFlag=           0 FMFlag=      100000 FMFlg1=           0
         NFxFlg=           0 DoJE=T BraDBF=F KetDBF=T FulRan=T
         wScrn=  0.000000 ICntrl=       500 IOpCl=  0 I1Cent=   200000004 NGrid=           0
         NMat0=    1 NMatS0=      1 NMatT0=    0 NMatD0=    1 NMtDS0=    0 NMtDT0=    0
 Symmetry not used in FoFCou.
 Harris En= -1270.80459180159    
 JPrj=0 DoOrth=F DoCkMO=F.
 Initial guess <Sx>= 0.0000 <Sy>= 0.0000 <Sz>= 0.5000 <S**2>= 0.7500 S= 0.5000
 Leave Link  401 at Mon Jan 12 17:45:09 2026, MaxMem=   655360000 cpu:              63.7 elap:               1.1
 (Enter /home/chenh/prog/g16-A03/g16/l502.exe)
 Two-electron integral symmetry not used.
 UHF open shell SCF:
 Using DIIS extrapolation, IDIIS=  1040.
 NGot=   655360000 LenX=   655004404 LenY=   654840747
 Requested convergence on RMS density matrix=1.00D-08 within 128 cycles.
 Requested convergence on MAX density matrix=1.00D-06.
 Requested convergence on             energy=1.00D-06.
 No special actions if energy rises.
 Fock matrices will be formed incrementally for  20 cycles.
 Integral accuracy reduced to 1.0D-05 until final iterations.

 Cycle   1  Pass 0  IDiag  1:
 FoFJK:  IHMeth= 1 ICntrl=       0 DoSepK=T KAlg= 0 I1Cent=           0 FoldK=F
 IRaf=         1 NMat=       1 IRICut=       1 DoRegI=T DoRafI=F ISym2E= 0 IDoP0=0 IntGTp=1.
 FoFCou: FMM=F IPFlag=           0 FMFlag=      100000 FMFlg1=           0
         NFxFlg=           0 DoJE=T BraDBF=F KetDBF=F FulRan=T
         wScrn=  0.000000 ICntrl=       500 IOpCl=  0 I1Cent=           0 NGrid=           0
         NMat0=    1 NMatS0=      1 NMatT0=    0 NMatD0=    1 NMtDS0=    0 NMtDT0=    0
 Symmetry not used in FoFCou.
 E= -1316.69233511972    
 DIIS: error= 3.26D-02 at cycle   1 NSaved=   1.
 NSaved= 1 IEnMin= 1 EnMin= -1316.69233511972     IErMin= 1 ErrMin= 3.26D-02
 ErrMax= 3.26D-02  0.00D+00 EMaxC= 1.00D-01 BMatC= 2.80D+00 BMatP= 2.80D+00
 IDIUse=3 WtCom= 6.74D-01 WtEn= 3.26D-01
 Coeff-Com:  0.100D+01
 Coeff-En:   0.100D+01
 Coeff:      0.100D+01
 Gap=     0.193 Goal=   None    Shift=    0.000
 Gap=     0.441 Goal=   None    Shift=    0.000
 GapD=    0.193 DampG=1.000 DampE=0.500 DampFc=0.5000 IDamp=-1.
 Damping current iteration by 5.00D-01
 RMSDP=4.16D-03 MaxDP=3.95D-01              OVMax= 2.97D-01

 Cycle   2  Pass 0  IDiag  1:
 RMSU=  2.04D-03    CP:  9.79D-01
 E= -1316.85286523815     Delta-E=       -0.160530118427 Rises=F Damp=T
 DIIS: error= 1.52D-02 at cycle   2 NSaved=   2.
 NSaved= 2 IEnMin= 2 EnMin= -1316.85286523815     IErMin= 2 ErrMin= 1.52D-02
 ErrMax= 1.52D-02  0.00D+00 EMaxC= 1.00D-01 BMatC= 4.21D-01 BMatP= 2.80D+00
 IDIUse=3 WtCom= 8.48D-01 WtEn= 1.52D-01
 Coeff-Com: -0.217D+00 0.122D+01
 Coeff-En:   0.000D+00 0.100D+01
 Coeff:     -0.184D+00 0.118D+01
 Gap=     0.176 Goal=   None    Shift=    0.000
 Gap=     0.388 Goal=   None    Shift=    0.000
 RMSDP=1.53D-03 MaxDP=6.22D-02 DE=-1.61D-01 OVMax= 1.57D-01

 Cycle   3  Pass 0  IDiag  1:
 RMSU=  1.42D-03    CP:  9.60D-01  1.22D+00
 E= -1317.00597416389     Delta-E=       -0.153108925738 Rises=F Damp=F
 DIIS: error= 1.06D-02 at cycle   3 NSaved=   3.
 NSaved= 3 IEnMin= 3 EnMin= -1317.00597416389     IErMin= 3 ErrMin= 1.06D-02
 ErrMax= 1.06D-02  0.00D+00 EMaxC= 1.00D-01 BMatC= 1.38D-01 BMatP= 4.21D-01
 IDIUse=3 WtCom= 8.94D-01 WtEn= 1.06D-01
 Coeff-Com: -0.210D+00 0.497D+00 0.713D+00
 Coeff-En:   0.000D+00 0.000D+00 0.100D+01
 Coeff:     -0.188D+00 0.444D+00 0.743D+00
 Gap=     0.165 Goal=   None    Shift=    0.000
 Gap=     0.329 Goal=   None    Shift=    0.000
 RMSDP=7.19D-04 MaxDP=3.89D-02 DE=-1.53D-01 OVMax= 7.71D-02

 Cycle   4  Pass 0  IDiag  1:
 RMSU=  4.83D-04    CP:  9.58D-01  1.44D+00  7.92D-01
 E= -1317.03260396320     Delta-E=       -0.026629799312 Rises=F Damp=F
 DIIS: error= 4.26D-03 at cycle   4 NSaved=   4.
 NSaved= 4 IEnMin= 4 EnMin= -1317.03260396320     IErMin= 4 ErrMin= 4.26D-03
 ErrMax= 4.26D-03  0.00D+00 EMaxC= 1.00D-01 BMatC= 1.83D-02 BMatP= 1.38D-01
 IDIUse=3 WtCom= 9.57D-01 WtEn= 4.26D-02
 Coeff-Com: -0.804D-01 0.165D+00 0.383D+00 0.533D+00
 Coeff-En:   0.000D+00 0.000D+00 0.000D+00 0.100D+01
 Coeff:     -0.769D-01 0.158D+00 0.367D+00 0.552D+00
 Gap=     0.164 Goal=   None    Shift=    0.000
 Gap=     0.323 Goal=   None    Shift=    0.000
 RMSDP=2.32D-04 MaxDP=8.38D-03 DE=-2.66D-02 OVMax= 2.18D-02

 Cycle   5  Pass 0  IDiag  1:
 RMSU=  1.71D-04    CP:  9.57D-01  1.44D+00  8.67D-01  7.71D-01
 E= -1317.03664967647     Delta-E=       -0.004045713269 Rises=F Damp=F
 DIIS: error= 1.13D-03 at cycle   5 NSaved=   5.
 NSaved= 5 IEnMin= 5 EnMin= -1317.03664967647     IErMin= 5 ErrMin= 1.13D-03
 ErrMax= 1.13D-03  0.00D+00 EMaxC= 1.00D-01 BMatC= 6.13D-04 BMatP= 1.83D-02
 IDIUse=3 WtCom= 9.89D-01 WtEn= 1.13D-02
 Coeff-Com: -0.110D-02-0.209D-02 0.364D-01 0.143D+00 0.824D+00
 Coeff-En:   0.000D+00 0.000D+00 0.000D+00 0.000D+00 0.100D+01
 Coeff:     -0.109D-02-0.206D-02 0.360D-01 0.141D+00 0.826D+00
 Gap=     0.168 Goal=   None    Shift=    0.000
 Gap=     0.322 Goal=   None    Shift=    0.000
 RMSDP=1.27D-04 MaxDP=5.53D-03 DE=-4.05D-03 OVMax= 2.88D-02

 Cycle   6  Pass 0  IDiag  1:
 RMSU=  7.48D-05    CP:  9.57D-01  1.45D+00  8.78D-01  9.08D-01  1.43D+00
 E= -1317.03723979258     Delta-E=       -0.000590116111 Rises=F Damp=F
 DIIS: error= 9.14D-04 at cycle   6 NSaved=   6.
 NSaved= 6 IEnMin= 6 EnMin= -1317.03723979258     IErMin= 6 ErrMin= 9.14D-04
 ErrMax= 9.14D-04  0.00D+00 EMaxC= 1.00D-01 BMatC= 2.69D-04 BMatP= 6.13D-04
 IDIUse=3 WtCom= 9.91D-01 WtEn= 9.14D-03
 Coeff-Com:  0.183D-01-0.388D-01-0.665D-01-0.588D-01 0.363D+00 0.783D+00
 Coeff-En:   0.000D+00 0.000D+00 0.000D+00 0.000D+00 0.000D+00 0.100D+01
 Coeff:      0.182D-01-0.384D-01-0.659D-01-0.582D-01 0.360D+00 0.785D+00
 Gap=     0.170 Goal=   None    Shift=    0.000
 Gap=     0.321 Goal=   None    Shift=    0.000
 RMSDP=1.09D-04 MaxDP=5.97D-03 DE=-5.90D-04 OVMax= 2.76D-02

 Cycle   7  Pass 0  IDiag  1:
 RMSU=  5.16D-05    CP:  9.56D-01  1.46D+00  8.90D-01  9.91D-01  1.87D+00
                    CP:  1.51D+00
 E= -1317.03763338123     Delta-E=       -0.000393588648 Rises=F Damp=F
 DIIS: error= 6.60D-04 at cycle   7 NSaved=   7.
 NSaved= 7 IEnMin= 7 EnMin= -1317.03763338123     IErMin= 7 ErrMin= 6.60D-04
 ErrMax= 6.60D-04  0.00D+00 EMaxC= 1.00D-01 BMatC= 1.15D-04 BMatP= 2.69D-04
 IDIUse=3 WtCom= 9.93D-01 WtEn= 6.60D-03
 Coeff-Com:  0.413D-02-0.649D-02-0.256D-01-0.775D-01-0.376D+00 0.209D+00
 Coeff-Com:  0.127D+01
 Coeff-En:   0.000D+00 0.000D+00 0.000D+00 0.000D+00 0.000D+00 0.000D+00
 Coeff-En:   0.100D+01
 Coeff:      0.410D-02-0.644D-02-0.254D-01-0.769D-01-0.374D+00 0.207D+00
 Coeff:      0.127D+01
 Gap=     0.173 Goal=   None    Shift=    0.000
 Gap=     0.320 Goal=   None    Shift=    0.000
 RMSDP=1.49D-04 MaxDP=6.92D-03 DE=-3.94D-04 OVMax= 3.82D-02

 Cycle   8  Pass 0  IDiag  1:
 RMSU=  2.83D-05    CP:  9.56D-01  1.47D+00  8.97D-01  1.10D+00  2.48D+00
                    CP:  2.51D+00  1.93D+00
 E= -1317.03797700661     Delta-E=       -0.000343625385 Rises=F Damp=F
 DIIS: error= 3.46D-04 at cycle   8 NSaved=   8.
 NSaved= 8 IEnMin= 8 EnMin= -1317.03797700661     IErMin= 8 ErrMin= 3.46D-04
 ErrMax= 3.46D-04  0.00D+00 EMaxC= 1.00D-01 BMatC= 3.90D-05 BMatP= 1.15D-04
 IDIUse=3 WtCom= 9.97D-01 WtEn= 3.46D-03
 Coeff-Com: -0.782D-02 0.169D-01 0.254D-01 0.572D-02-0.288D+00-0.260D+00
 Coeff-Com:  0.458D+00 0.105D+01
 Coeff-En:   0.000D+00 0.000D+00 0.000D+00 0.000D+00 0.000D+00 0.000D+00
 Coeff-En:   0.000D+00 0.100D+01
 Coeff:     -0.779D-02 0.169D-01 0.253D-01 0.570D-02-0.287D+00-0.260D+00
 Coeff:      0.456D+00 0.105D+01
 Gap=     0.175 Goal=   None    Shift=    0.000
 Gap=     0.319 Goal=   None    Shift=    0.000
 RMSDP=9.92D-05 MaxDP=4.98D-03 DE=-3.44D-04 OVMax= 2.53D-02

 Cycle   9  Pass 0  IDiag  1:
 RMSU=  1.98D-05    CP:  9.56D-01  1.47D+00  8.98D-01  1.15D+00  2.82D+00
                    CP:  3.00D+00  2.87D+00  1.72D+00
 E= -1317.03809277178     Delta-E=       -0.000115765169 Rises=F Damp=F
 DIIS: error= 1.36D-04 at cycle   9 NSaved=   9.
 NSaved= 9 IEnMin= 9 EnMin= -1317.03809277178     IErMin= 9 ErrMin= 1.36D-04
 ErrMax= 1.36D-04  0.00D+00 EMaxC= 1.00D-01 BMatC= 7.76D-06 BMatP= 3.90D-05
 IDIUse=3 WtCom= 9.99D-01 WtEn= 1.36D-03
 Coeff-Com: -0.319D-02 0.613D-02 0.136D-01 0.242D-01 0.583D-01-0.106D+00
 Coeff-Com: -0.270D+00 0.185D+00 0.109D+01
 Coeff-En:   0.000D+00 0.000D+00 0.000D+00 0.000D+00 0.000D+00 0.000D+00
 Coeff-En:   0.000D+00 0.000D+00 0.100D+01
 Coeff:     -0.318D-02 0.613D-02 0.136D-01 0.242D-01 0.583D-01-0.106D+00
 Coeff:     -0.269D+00 0.185D+00 0.109D+01
 Gap=     0.175 Goal=   None    Shift=    0.000
 Gap=     0.319 Goal=   None    Shift=    0.000
 RMSDP=4.53D-05 MaxDP=2.27D-03 DE=-1.16D-04 OVMax= 1.12D-02

 Cycle  10  Pass 0  IDiag  1:
 RMSU=  2.23D-05    CP:  9.56D-01  1.47D+00  8.98D-01  1.17D+00  2.95D+00
                    CP:  3.00D+00  3.00D+00  2.35D+00  2.00D+00
 E= -1317.03811698657     Delta-E=       -0.000024214792 Rises=F Damp=F
 DIIS: error= 6.19D-05 at cycle  10 NSaved=  10.
 NSaved=10 IEnMin=10 EnMin= -1317.03811698657     IErMin=10 ErrMin= 6.19D-05
 ErrMax= 6.19D-05  0.00D+00 EMaxC= 1.00D-01 BMatC= 3.77D-06 BMatP= 7.76D-06
 IDIUse=1 WtCom= 1.00D+00 WtEn= 0.00D+00
 Coeff-Com:  0.378D-03-0.105D-02-0.319D-03 0.660D-02 0.812D-01 0.105D-01
 Coeff-Com: -0.218D+00-0.171D+00 0.513D+00 0.778D+00
 Coeff:      0.378D-03-0.105D-02-0.319D-03 0.660D-02 0.812D-01 0.105D-01
 Coeff:     -0.218D+00-0.171D+00 0.513D+00 0.778D+00
 Gap=     0.175 Goal=   None    Shift=    0.000
 Gap=     0.319 Goal=   None    Shift=    0.000
 RMSDP=2.18D-05 MaxDP=1.11D-03 DE=-2.42D-05 OVMax= 5.02D-03

 Cycle  11  Pass 0  IDiag  1:
 RMSU=  6.12D-06    CP:  9.55D-01  1.47D+00  8.98D-01  1.18D+00  3.00D+00
                    CP:  3.00D+00  3.00D+00  2.64D+00  2.54D+00  1.56D+00
 E= -1317.03812258708     Delta-E=       -0.000005600506 Rises=F Damp=F
 DIIS: error= 4.17D-05 at cycle  11 NSaved=  11.
 NSaved=11 IEnMin=11 EnMin= -1317.03812258708     IErMin=11 ErrMin= 4.17D-05
 ErrMax= 4.17D-05  0.00D+00 EMaxC= 1.00D-01 BMatC= 7.56D-07 BMatP= 3.77D-06
 IDIUse=1 WtCom= 1.00D+00 WtEn= 0.00D+00
 Coeff-Com:  0.121D-02-0.240D-02-0.479D-02-0.771D-02-0.645D-02 0.541D-01
 Coeff-Com:  0.584D-01-0.104D+00-0.287D+00 0.472D-01 0.125D+01
 Coeff:      0.121D-02-0.240D-02-0.479D-02-0.771D-02-0.645D-02 0.541D-01
 Coeff:      0.584D-01-0.104D+00-0.287D+00 0.472D-01 0.125D+01
 Gap=     0.176 Goal=   None    Shift=    0.000
 Gap=     0.318 Goal=   None    Shift=    0.000
 RMSDP=1.16D-05 MaxDP=8.04D-04 DE=-5.60D-06 OVMax= 2.02D-03

 Cycle  12  Pass 0  IDiag  1:
 RMSU=  4.88D-06    CP:  9.55D-01  1.47D+00  8.98D-01  1.18D+00  3.00D+00
                    CP:  3.00D+00  3.00D+00  2.83D+00  2.82D+00  1.82D+00
                    CP:  1.60D+00
 E= -1317.03812464278     Delta-E=       -0.000002055705 Rises=F Damp=F
 DIIS: error= 3.30D-05 at cycle  12 NSaved=  12.
 NSaved=12 IEnMin=12 EnMin= -1317.03812464278     IErMin=12 ErrMin= 3.30D-05
 ErrMax= 3.30D-05  0.00D+00 EMaxC= 1.00D-01 BMatC= 2.76D-07 BMatP= 7.56D-07
 IDIUse=1 WtCom= 1.00D+00 WtEn= 0.00D+00
 Coeff-Com:  0.163D-03-0.273D-03-0.851D-03-0.294D-02-0.190D-01 0.115D-01
 Coeff-Com:  0.528D-01 0.149D-01-0.157D+00-0.165D+00 0.295D+00 0.971D+00
 Coeff:      0.163D-03-0.273D-03-0.851D-03-0.294D-02-0.190D-01 0.115D-01
 Coeff:      0.528D-01 0.149D-01-0.157D+00-0.165D+00 0.295D+00 0.971D+00
 Gap=     0.176 Goal=   None    Shift=    0.000
 Gap=     0.318 Goal=   None    Shift=    0.000
 RMSDP=3.94D-06 MaxDP=2.42D-04 DE=-2.06D-06 OVMax= 6.47D-04

 Initial convergence to 1.0D-05 achieved.  Increase integral accuracy.
 Cycle  13  Pass 1  IDiag  1:
 E= -1317.03825826566     Delta-E=       -0.000133622871 Rises=F Damp=F
 DIIS: error= 1.22D-04 at cycle   1 NSaved=   1.
 NSaved= 1 IEnMin= 1 EnMin= -1317.03825826566     IErMin= 1 ErrMin= 1.22D-04
 ErrMax= 1.22D-04  0.00D+00 EMaxC= 1.00D-01 BMatC= 8.94D-06 BMatP= 8.94D-06
 IDIUse=3 WtCom= 9.99D-01 WtEn= 1.22D-03
 Coeff-Com:  0.100D+01
 Coeff-En:   0.100D+01
 Coeff:      0.100D+01
 Gap=     0.176 Goal=   None    Shift=    0.000
 Gap=     0.318 Goal=   None    Shift=    0.000
 RMSDP=3.94D-06 MaxDP=2.42D-04 DE=-1.34D-04 OVMax= 3.36D-04

 Cycle  14  Pass 1  IDiag  1:
 RMSU=  8.09D-05    CP:  1.00D+00
 E= -1317.03826056461     Delta-E=       -0.000002298954 Rises=F Damp=F
 DIIS: error= 2.12D-05 at cycle   2 NSaved=   2.
 NSaved= 2 IEnMin= 2 EnMin= -1317.03826056461     IErMin= 2 ErrMin= 2.12D-05
 ErrMax= 2.12D-05  0.00D+00 EMaxC= 1.00D-01 BMatC= 1.63D-07 BMatP= 8.94D-06
 IDIUse=1 WtCom= 1.00D+00 WtEn= 0.00D+00
 Coeff-Com: -0.406D-01 0.104D+01
 Coeff:     -0.406D-01 0.104D+01
 Gap=     0.176 Goal=   None    Shift=    0.000
 Gap=     0.318 Goal=   None    Shift=    0.000
 RMSDP=5.24D-06 MaxDP=1.18D-04 DE=-2.30D-06 OVMax= 2.24D-04

 Cycle  15  Pass 1  IDiag  1:
 RMSU=  1.90D-06    CP:  1.00D+00  1.06D+00
 E= -1317.03826069991     Delta-E=       -0.000000135304 Rises=F Damp=F
 DIIS: error= 1.93D-05 at cycle   3 NSaved=   3.
 NSaved= 3 IEnMin= 3 EnMin= -1317.03826069991     IErMin= 3 ErrMin= 1.93D-05
 ErrMax= 1.93D-05  0.00D+00 EMaxC= 1.00D-01 BMatC= 1.21D-07 BMatP= 1.63D-07
 IDIUse=1 WtCom= 1.00D+00 WtEn= 0.00D+00
 Coeff-Com: -0.295D-01 0.474D+00 0.556D+00
 Coeff:     -0.295D-01 0.474D+00 0.556D+00
 Gap=     0.176 Goal=   None    Shift=    0.000
 Gap=     0.318 Goal=   None    Shift=    0.000
 RMSDP=7.56D-07 MaxDP=5.23D-05 DE=-1.35D-07 OVMax= 1.01D-04

 Cycle  16  Pass 1  IDiag  1:
 RMSU=  7.32D-07    CP:  1.00D+00  1.06D+00  1.05D+00
 E= -1317.03826076136     Delta-E=       -0.000000061445 Rises=F Damp=F
 DIIS: error= 1.33D-05 at cycle   4 NSaved=   4.
 NSaved= 4 IEnMin= 4 EnMin= -1317.03826076136     IErMin= 4 ErrMin= 1.33D-05
 ErrMax= 1.33D-05  0.00D+00 EMaxC= 1.00D-01 BMatC= 4.01D-08 BMatP= 1.21D-07
 IDIUse=1 WtCom= 1.00D+00 WtEn= 0.00D+00
 Coeff-Com:  0.941D-02-0.272D+00 0.117D+00 0.115D+01
 Coeff:      0.941D-02-0.272D+00 0.117D+00 0.115D+01
 Gap=     0.176 Goal=   None    Shift=    0.000
 Gap=     0.318 Goal=   None    Shift=    0.000
 RMSDP=1.03D-06 MaxDP=7.27D-05 DE=-6.14D-08 OVMax= 1.74D-04

 Cycle  17  Pass 1  IDiag  1:
 RMSU=  6.15D-07    CP:  1.00D+00  1.06D+00  1.40D+00  1.68D+00
 E= -1317.03826083913     Delta-E=       -0.000000077774 Rises=F Damp=F
 DIIS: error= 8.67D-06 at cycle   5 NSaved=   5.
 NSaved= 5 IEnMin= 5 EnMin= -1317.03826083913     IErMin= 5 ErrMin= 8.67D-06
 ErrMax= 8.67D-06  0.00D+00 EMaxC= 1.00D-01 BMatC= 2.02D-08 BMatP= 4.01D-08
 IDIUse=1 WtCom= 1.00D+00 WtEn= 0.00D+00
 Coeff-Com:  0.209D-01-0.382D+00-0.275D+00 0.328D+00 0.131D+01
 Coeff:      0.209D-01-0.382D+00-0.275D+00 0.328D+00 0.131D+01
 Gap=     0.176 Goal=   None    Shift=    0.000
 Gap=     0.318 Goal=   None    Shift=    0.000
 RMSDP=1.32D-06 MaxDP=8.73D-05 DE=-7.78D-08 OVMax= 2.35D-04

 Cycle  18  Pass 1  IDiag  1:
 RMSU=  3.50D-07    CP:  1.00D+00  1.06D+00  1.77D+00  2.77D+00  2.14D+00
 E= -1317.03826090321     Delta-E=       -0.000000064076 Rises=F Damp=F
 DIIS: error= 4.36D-06 at cycle   6 NSaved=   6.
 NSaved= 6 IEnMin= 6 EnMin= -1317.03826090321     IErMin= 6 ErrMin= 4.36D-06
 ErrMax= 4.36D-06  0.00D+00 EMaxC= 1.00D-01 BMatC= 7.59D-09 BMatP= 2.02D-08
 IDIUse=1 WtCom= 1.00D+00 WtEn= 0.00D+00
 Coeff-Com:  0.484D-02-0.297D-01-0.182D+00-0.498D+00 0.621D+00 0.108D+01
 Coeff:      0.484D-02-0.297D-01-0.182D+00-0.498D+00 0.621D+00 0.108D+01
 Gap=     0.176 Goal=   None    Shift=    0.000
 Gap=     0.318 Goal=   None    Shift=    0.000
 RMSDP=1.06D-06 MaxDP=7.32D-05 DE=-6.41D-08 OVMax= 1.99D-04

 Cycle  19  Pass 1  IDiag  1:
 RMSU=  5.02D-07    CP:  1.00D+00  1.06D+00  2.03D+00  3.00D+00  3.00D+00
                    CP:  1.45D+00
 E= -1317.03826092575     Delta-E=       -0.000000022547 Rises=F Damp=F
 DIIS: error= 1.27D-06 at cycle   7 NSaved=   7.
 NSaved= 7 IEnMin= 7 EnMin= -1317.03826092575     IErMin= 7 ErrMin= 1.27D-06
 ErrMax= 1.27D-06  0.00D+00 EMaxC= 1.00D-01 BMatC= 1.63D-09 BMatP= 7.59D-09
 IDIUse=1 WtCom= 1.00D+00 WtEn= 0.00D+00
 Coeff-Com: -0.280D-02 0.743D-01-0.861D-02-0.305D+00-0.383D-01 0.495D+00
 Coeff-Com:  0.785D+00
 Coeff:     -0.280D-02 0.743D-01-0.861D-02-0.305D+00-0.383D-01 0.495D+00
 Coeff:      0.785D+00
 Gap=     0.176 Goal=   None    Shift=    0.000
 Gap=     0.318 Goal=   None    Shift=    0.000
 RMSDP=3.44D-07 MaxDP=2.38D-05 DE=-2.25D-08 OVMax= 6.62D-05

 Cycle  20  Pass 1  IDiag  1:
 RMSU=  1.79D-07    CP:  1.00D+00  1.06D+00  2.09D+00  3.00D+00  3.00D+00
                    CP:  1.75D+00  1.49D+00
 E= -1317.03826092791     Delta-E=       -0.000000002160 Rises=F Damp=F
 DIIS: error= 4.40D-07 at cycle   8 NSaved=   8.
 NSaved= 8 IEnMin= 8 EnMin= -1317.03826092791     IErMin= 8 ErrMin= 4.40D-07
 ErrMax= 4.40D-07  0.00D+00 EMaxC= 1.00D-01 BMatC= 1.94D-10 BMatP= 1.63D-09
 IDIUse=1 WtCom= 1.00D+00 WtEn= 0.00D+00
 Coeff-Com: -0.143D-02 0.258D-01 0.293D-01-0.225D-01-0.107D+00-0.114D-02
 Coeff-Com:  0.237D+00 0.841D+00
 Coeff:     -0.143D-02 0.258D-01 0.293D-01-0.225D-01-0.107D+00-0.114D-02
 Coeff:      0.237D+00 0.841D+00
 Gap=     0.176 Goal=   None    Shift=    0.000
 Gap=     0.318 Goal=   None    Shift=    0.000
 RMSDP=1.02D-07 MaxDP=5.50D-06 DE=-2.16D-09 OVMax= 2.20D-05

 Cycle  21  Pass 1  IDiag  1:
 RMSU=  5.49D-08    CP:  1.00D+00  1.06D+00  2.10D+00  3.00D+00  3.00D+00
                    CP:  1.84D+00  1.62D+00  1.20D+00
 E= -1317.03826092814     Delta-E=       -0.000000000222 Rises=F Damp=F
 DIIS: error= 2.94D-07 at cycle   9 NSaved=   9.
 NSaved= 9 IEnMin= 9 EnMin= -1317.03826092814     IErMin= 9 ErrMin= 2.94D-07
 ErrMax= 2.94D-07  0.00D+00 EMaxC= 1.00D-01 BMatC= 5.45D-11 BMatP= 1.94D-10
 IDIUse=1 WtCom= 1.00D+00 WtEn= 0.00D+00
 Coeff-Com:  0.274D-03-0.108D-01 0.117D-01 0.639D-01-0.220D-01-0.107D+00
 Coeff-Com: -0.143D+00 0.219D+00 0.988D+00
 Coeff:      0.274D-03-0.108D-01 0.117D-01 0.639D-01-0.220D-01-0.107D+00
 Coeff:     -0.143D+00 0.219D+00 0.988D+00
 Gap=     0.176 Goal=   None    Shift=    0.000
 Gap=     0.318 Goal=   None    Shift=    0.000
 RMSDP=6.72D-08 MaxDP=3.84D-06 DE=-2.22D-10 OVMax= 1.55D-05

 Cycle  22  Pass 1  IDiag  1:
 RMSU=  2.85D-08    CP:  1.00D+00  1.06D+00  2.11D+00  3.00D+00  3.00D+00
                    CP:  1.89D+00  1.70D+00  1.33D+00  1.59D+00
 E= -1317.03826092819     Delta-E=       -0.000000000053 Rises=F Damp=F
 DIIS: error= 1.84D-07 at cycle  10 NSaved=  10.
 NSaved=10 IEnMin=10 EnMin= -1317.03826092819     IErMin=10 ErrMin= 1.84D-07
 ErrMax= 1.84D-07  0.00D+00 EMaxC= 1.00D-01 BMatC= 1.57D-11 BMatP= 5.45D-11
 IDIUse=1 WtCom= 1.00D+00 WtEn= 0.00D+00
 Coeff-Com:  0.462D-03-0.102D-01-0.439D-02 0.217D-01 0.220D-01-0.216D-01
 Coeff-Com: -0.114D+00-0.166D+00 0.267D+00 0.101D+01
 Coeff:      0.462D-03-0.102D-01-0.439D-02 0.217D-01 0.220D-01-0.216D-01
 Coeff:     -0.114D+00-0.166D+00 0.267D+00 0.101D+01
 Gap=     0.176 Goal=   None    Shift=    0.000
 Gap=     0.318 Goal=   None    Shift=    0.000
 RMSDP=4.50D-08 MaxDP=2.63D-06 DE=-5.28D-11 OVMax= 1.09D-05

 Cycle  23  Pass 1  IDiag  1:
 RMSU=  1.27D-08    CP:  1.00D+00  1.06D+00  2.12D+00  3.00D+00  3.00D+00
                    CP:  1.92D+00  1.75D+00  1.42D+00  2.01D+00  1.52D+00
 E= -1317.03826092829     Delta-E=       -0.000000000101 Rises=F Damp=F
 DIIS: error= 1.15D-07 at cycle  11 NSaved=  11.
 NSaved=11 IEnMin=11 EnMin= -1317.03826092829     IErMin=11 ErrMin= 1.15D-07
 ErrMax= 1.15D-07  0.00D+00 EMaxC= 1.00D-01 BMatC= 4.15D-12 BMatP= 1.57D-11
 IDIUse=1 WtCom= 1.00D+00 WtEn= 0.00D+00
 Coeff-Com:  0.850D-04-0.621D-03-0.368D-02-0.949D-02 0.120D-01 0.222D-01
 Coeff-Com: -0.422D-02-0.109D+00-0.155D+00 0.282D+00 0.966D+00
 Coeff:      0.850D-04-0.621D-03-0.368D-02-0.949D-02 0.120D-01 0.222D-01
 Coeff:     -0.422D-02-0.109D+00-0.155D+00 0.282D+00 0.966D+00
 Gap=     0.176 Goal=   None    Shift=    0.000
 Gap=     0.318 Goal=   None    Shift=    0.000
 RMSDP=2.49D-08 MaxDP=1.38D-06 DE=-1.01D-10 OVMax= 6.44D-06

 Cycle  24  Pass 1  IDiag  1:
 RMSU=  7.01D-09    CP:  1.00D+00  1.06D+00  2.12D+00  3.00D+00  3.00D+00
                    CP:  1.93D+00  1.78D+00  1.46D+00  2.21D+00  1.90D+00
                    CP:  1.62D+00
 E= -1317.03826092830     Delta-E=       -0.000000000014 Rises=F Damp=F
 DIIS: error= 6.14D-08 at cycle  12 NSaved=  12.
 NSaved=12 IEnMin=12 EnMin= -1317.03826092830     IErMin=12 ErrMin= 6.14D-08
 ErrMax= 6.14D-08  0.00D+00 EMaxC= 1.00D-01 BMatC= 1.74D-12 BMatP= 4.15D-12
 IDIUse=1 WtCom= 1.00D+00 WtEn= 0.00D+00
 Coeff-Com: -0.121D-03 0.307D-02 0.710D-03-0.108D-01-0.399D-02 0.153D-01
 Coeff-Com:  0.365D-01 0.188D-01-0.135D+00-0.282D+00 0.389D+00 0.969D+00
 Coeff:     -0.121D-03 0.307D-02 0.710D-03-0.108D-01-0.399D-02 0.153D-01
 Coeff:      0.365D-01 0.188D-01-0.135D+00-0.282D+00 0.389D+00 0.969D+00
 Gap=     0.176 Goal=   None    Shift=    0.000
 Gap=     0.318 Goal=   None    Shift=    0.000
 RMSDP=1.71D-08 MaxDP=8.56D-07 DE=-1.36D-11 OVMax= 4.42D-06

 Cycle  25  Pass 1  IDiag  1:
 RMSU=  3.46D-09    CP:  1.00D+00  1.06D+00  2.12D+00  3.00D+00  3.00D+00
                    CP:  1.93D+00  1.80D+00  1.49D+00  2.33D+00  2.09D+00
                    CP:  2.24D+00  1.62D+00
 E= -1317.03826092828     Delta-E=        0.000000000028 Rises=F Damp=F
 DIIS: error= 2.89D-08 at cycle  13 NSaved=  13.
 NSaved=13 IEnMin=12 EnMin= -1317.03826092830     IErMin=13 ErrMin= 2.89D-08
 ErrMax= 2.89D-08  0.00D+00 EMaxC= 1.00D-01 BMatC= 3.51D-13 BMatP= 1.74D-12
 IDIUse=1 WtCom= 1.00D+00 WtEn= 0.00D+00
 Coeff-Com: -0.427D-04 0.685D-03 0.123D-02 0.310D-03-0.393D-02-0.219D-02
 Coeff-Com:  0.615D-02 0.290D-01 0.188D-01-0.125D+00-0.127D+00 0.102D+00
 Coeff-Com:  0.110D+01
 Coeff:     -0.427D-04 0.685D-03 0.123D-02 0.310D-03-0.393D-02-0.219D-02
 Coeff:      0.615D-02 0.290D-01 0.188D-01-0.125D+00-0.127D+00 0.102D+00
 Coeff:      0.110D+01
 Gap=     0.176 Goal=   None    Shift=    0.000
 Gap=     0.318 Goal=   None    Shift=    0.000
 RMSDP=8.61D-09 MaxDP=4.11D-07 DE= 2.77D-11 OVMax= 2.25D-06

 SCF Done:  E(UwB97XD) =  -1317.03826093     A.U. after   25 cycles
            NFock= 25  Conv=0.86D-08     -V/T= 2.0080
 <Sx>= 0.0000 <Sy>= 0.0000 <Sz>= 0.5000 <S**2>= 0.7729 S= 0.5114
 <L.S>= 0.000000000000E+00
 KE= 1.306615958061D+03 PE=-6.687746195400D+03 EE= 2.271194938557D+03
 Annihilation of the first spin contaminant:
 S**2 before annihilation     0.7729,   after     0.7504
 Leave Link  502 at Mon Jan 12 17:45:53 2026, MaxMem=   655360000 cpu:            2776.5 elap:              43.6
 (Enter /home/chenh/prog/g16-A03/g16/l601.exe)
 Copying SCF densities to generalized density rwf, IOpCl= 1 IROHF=0.

 **********************************************************************

            Population analysis using the SCF density.

 **********************************************************************

 Alpha  occ. eigenvalues --  -89.06913 -19.18209 -19.08390 -19.08377 -10.26638
 Alpha  occ. eigenvalues --  -10.21964 -10.21675 -10.21027 -10.20952 -10.20746
 Alpha  occ. eigenvalues --  -10.20218 -10.20001 -10.19995 -10.19854 -10.19316
 Alpha  occ. eigenvalues --  -10.19297 -10.19252 -10.17123 -10.17120 -10.16875
 Alpha  occ. eigenvalues --  -10.16873 -10.16106  -8.08844  -6.04268  -6.04179
 Alpha  occ. eigenvalues --   -6.04050  -1.05655  -1.03916  -0.92734  -0.85602
 Alpha  occ. eigenvalues --   -0.84281  -0.81246  -0.75341  -0.74679  -0.73968
 Alpha  occ. eigenvalues --   -0.73103  -0.70950  -0.70918  -0.64389  -0.60976
 Alpha  occ. eigenvalues --   -0.60227  -0.58672  -0.57314  -0.56618  -0.54182
 Alpha  occ. eigenvalues --   -0.52275  -0.50441  -0.49032  -0.46670  -0.46496
 Alpha  occ. eigenvalues --   -0.44079  -0.43603  -0.43279  -0.42492  -0.41814
 Alpha  occ. eigenvalues --   -0.41743  -0.40080  -0.39762  -0.38834  -0.38632
 Alpha  occ. eigenvalues --   -0.37941  -0.36953  -0.35908  -0.35708  -0.34750
 Alpha  occ. eigenvalues --   -0.34247  -0.33122  -0.32801  -0.31750  -0.30913
 Alpha  occ. eigenvalues --   -0.28709  -0.26136  -0.24825  -0.24425  -0.23786
 Alpha  occ. eigenvalues --   -0.23308  -0.22734  -0.21897  -0.21391  -0.20123
 Alpha  occ. eigenvalues --   -0.19443  -0.02732
 Alpha virt. eigenvalues --    0.14838   0.15362   0.16467   0.16619   0.19751
 Alpha virt. eigenvalues --    0.22440   0.23672   0.26468   0.26679   0.27797
 Alpha virt. eigenvalues --    0.28390   0.28583   0.29686   0.29864   0.30744
 Alpha virt. eigenvalues --    0.31668   0.31984   0.32703   0.33086   0.33118
 Alpha virt. eigenvalues --    0.34674   0.34797   0.36635   0.37109   0.38047
 Alpha virt. eigenvalues --    0.38487   0.39952   0.42798   0.44083   0.45242
 Alpha virt. eigenvalues --    0.46213   0.46627   0.46920   0.47944   0.47968
 Alpha virt. eigenvalues --    0.48997   0.50248   0.51669   0.51948   0.52540
 Alpha virt. eigenvalues --    0.54726   0.55249   0.56767   0.57238   0.58244
 Alpha virt. eigenvalues --    0.58851   0.59236   0.60571   0.60759   0.61793
 Alpha virt. eigenvalues --    0.62272   0.63557   0.63725   0.64280   0.64805
 Alpha virt. eigenvalues --    0.65925   0.66242   0.66337   0.66574   0.67226
 Alpha virt. eigenvalues --    0.67485   0.68020   0.70573   0.70989   0.71754
 Alpha virt. eigenvalues --    0.72314   0.72668   0.72717   0.73198   0.73567
 Alpha virt. eigenvalues --    0.75200   0.75471   0.76454   0.77365   0.77573
 Alpha virt. eigenvalues --    0.78917   0.79321   0.80711   0.80965   0.81688
 Alpha virt. eigenvalues --    0.82528   0.82690   0.83575   0.84232   0.85248
 Alpha virt. eigenvalues --    0.85424   0.85657   0.86803   0.87657   0.88940
 Alpha virt. eigenvalues --    0.89065   0.89409   0.89464   0.89875   0.90234
 Alpha virt. eigenvalues --    0.90633   0.91443   0.92045   0.92409   0.92670
 Alpha virt. eigenvalues --    0.93508   0.93666   0.93874   0.95127   0.96656
 Alpha virt. eigenvalues --    0.96982   0.98175   0.98385   0.99310   1.00225
 Alpha virt. eigenvalues --    1.00702   1.02220   1.03250   1.03613   1.04601
 Alpha virt. eigenvalues --    1.06879   1.07063   1.09121   1.09834   1.12249
 Alpha virt. eigenvalues --    1.15744   1.16000   1.17683   1.19409   1.19935
 Alpha virt. eigenvalues --    1.22796   1.24236   1.26714   1.27960   1.28916
 Alpha virt. eigenvalues --    1.29373   1.31276   1.32524   1.34683   1.35419
 Alpha virt. eigenvalues --    1.37038   1.37373   1.38374   1.40008   1.40449
 Alpha virt. eigenvalues --    1.41387   1.42044   1.43109   1.43866   1.44112
 Alpha virt. eigenvalues --    1.44560   1.44881   1.45547   1.45614   1.46439
 Alpha virt. eigenvalues --    1.46747   1.47804   1.49965   1.50059   1.50518
 Alpha virt. eigenvalues --    1.53142   1.53756   1.54160   1.54632   1.56430
 Alpha virt. eigenvalues --    1.57781   1.65339   1.67990   1.68960   1.69723
 Alpha virt. eigenvalues --    1.75053   1.77283   1.80246   1.81463   1.83458
 Alpha virt. eigenvalues --    1.83881   1.85496   1.86602   1.86861   1.88193
 Alpha virt. eigenvalues --    1.89728   1.89978   1.90359   1.91053   1.92827
 Alpha virt. eigenvalues --    1.92970   1.93301   1.94040   1.94420   1.94767
 Alpha virt. eigenvalues --    1.94822   1.95339   1.95454   1.96937   1.97027
 Alpha virt. eigenvalues --    1.97378   1.98810   1.99317   2.00836   2.01020
 Alpha virt. eigenvalues --    2.01570   2.03226   2.04809   2.06457   2.08540
 Alpha virt. eigenvalues --    2.09727   2.10937   2.11166   2.11678   2.13448
 Alpha virt. eigenvalues --    2.13484   2.13660   2.14391   2.15728   2.15853
 Alpha virt. eigenvalues --    2.17068   2.17184   2.17657   2.19360   2.23532
 Alpha virt. eigenvalues --    2.23610   2.27879   2.28105   2.30238   2.30264
 Alpha virt. eigenvalues --    2.31251   2.32949   2.33522   2.34635   2.35447
 Alpha virt. eigenvalues --    2.37029   2.39366   2.39696   2.40404   2.43556
 Alpha virt. eigenvalues --    2.45178   2.45897   2.46956   2.48056   2.48616
 Alpha virt. eigenvalues --    2.48925   2.49828   2.50338   2.50699   2.51823
 Alpha virt. eigenvalues --    2.53153   2.53725   2.54343   2.54969   2.57188
 Alpha virt. eigenvalues --    2.57571   2.63587   2.67784   2.68892   2.71982
 Alpha virt. eigenvalues --    2.73220   2.77823   2.78624   2.79467   2.80843
 Alpha virt. eigenvalues --    2.82024   2.82305   2.83054   2.83395   2.84702
 Alpha virt. eigenvalues --    2.85595   2.88142   2.89209   2.90518   2.90679
 Alpha virt. eigenvalues --    2.91286   2.91572   2.93056   2.93968   2.94302
 Alpha virt. eigenvalues --    2.95202   2.97727   3.02310   3.04053   3.05191
 Alpha virt. eigenvalues --    3.06620   3.07210   3.07971   3.08593   3.10304
 Alpha virt. eigenvalues --    3.11642   3.13868   3.18767   3.19056   3.19875
 Alpha virt. eigenvalues --    3.21439   3.21480   3.30812   3.31051   3.37472
 Alpha virt. eigenvalues --    3.38626   3.40977   3.49842   3.53278   3.61650
 Alpha virt. eigenvalues --    3.62279   3.66712   3.79845   3.83033   3.93006
  Beta  occ. eigenvalues --  -89.06900 -19.18195 -19.08364 -19.08351 -10.26590
  Beta  occ. eigenvalues --  -10.21963 -10.21675 -10.21028 -10.20749 -10.20442
  Beta  occ. eigenvalues --  -10.20219 -10.20038 -10.20034 -10.19753 -10.19247
  Beta  occ. eigenvalues --  -10.19226 -10.19187 -10.17238 -10.17235 -10.16663
  Beta  occ. eigenvalues --  -10.16662 -10.15869  -8.08823  -6.04255  -6.04109
  Beta  occ. eigenvalues --   -6.04039  -1.05454  -1.03728  -0.92644  -0.85561
  Beta  occ. eigenvalues --   -0.84145  -0.80734  -0.75129  -0.74535  -0.73774
  Beta  occ. eigenvalues --   -0.72994  -0.70561  -0.70397  -0.63842  -0.60850
  Beta  occ. eigenvalues --   -0.60009  -0.58602  -0.56938  -0.56357  -0.54051
  Beta  occ. eigenvalues --   -0.51926  -0.50249  -0.48934  -0.46521  -0.46215
  Beta  occ. eigenvalues --   -0.43875  -0.43536  -0.43145  -0.42315  -0.41723
  Beta  occ. eigenvalues --   -0.41651  -0.40041  -0.39410  -0.38733  -0.38331
  Beta  occ. eigenvalues --   -0.37844  -0.36863  -0.35679  -0.35548  -0.34535
  Beta  occ. eigenvalues --   -0.34029  -0.32732  -0.32640  -0.31679  -0.30038
  Beta  occ. eigenvalues --   -0.28495  -0.25978  -0.24785  -0.24423  -0.23136
  Beta  occ. eigenvalues --   -0.22988  -0.22412  -0.21229  -0.20515  -0.19676
  Beta  occ. eigenvalues --   -0.16998
  Beta virt. eigenvalues --    0.14796   0.14870   0.16542   0.16713   0.19111
  Beta virt. eigenvalues --    0.20140   0.22488   0.23713   0.26508   0.26743
  Beta virt. eigenvalues --    0.27799   0.28420   0.29718   0.29863   0.30415
  Beta virt. eigenvalues --    0.30834   0.31864   0.32127   0.32746   0.33115
  Beta virt. eigenvalues --    0.33630   0.34940   0.34966   0.36952   0.37701
  Beta virt. eigenvalues --    0.38615   0.39530   0.40447   0.43267   0.44258
  Beta virt. eigenvalues --    0.45269   0.46314   0.46770   0.46958   0.48064
  Beta virt. eigenvalues --    0.48266   0.49159   0.50426   0.51769   0.52052
  Beta virt. eigenvalues --    0.52659   0.55020   0.55451   0.56849   0.57360
  Beta virt. eigenvalues --    0.58287   0.58996   0.59314   0.60642   0.60778
  Beta virt. eigenvalues --    0.61928   0.62394   0.63810   0.63911   0.64336
  Beta virt. eigenvalues --    0.65136   0.65964   0.66288   0.66531   0.66696
  Beta virt. eigenvalues --    0.67299   0.67587   0.68256   0.70931   0.70994
  Beta virt. eigenvalues --    0.71828   0.72659   0.72826   0.73042   0.73418
  Beta virt. eigenvalues --    0.73816   0.75242   0.75412   0.76627   0.77512
  Beta virt. eigenvalues --    0.77891   0.78903   0.79707   0.80874   0.81333
  Beta virt. eigenvalues --    0.81794   0.82753   0.82799   0.83787   0.84366
  Beta virt. eigenvalues --    0.85414   0.85473   0.85774   0.86853   0.87930
  Beta virt. eigenvalues --    0.89020   0.89197   0.89508   0.89567   0.90224
  Beta virt. eigenvalues --    0.90307   0.90722   0.91697   0.92133   0.92576
  Beta virt. eigenvalues --    0.92867   0.93711   0.93793   0.93964   0.95364
  Beta virt. eigenvalues --    0.96819   0.97207   0.98311   0.98566   0.99413
  Beta virt. eigenvalues --    1.00527   1.00824   1.02335   1.03566   1.03838
  Beta virt. eigenvalues --    1.04725   1.07151   1.07170   1.09304   1.09993
  Beta virt. eigenvalues --    1.12475   1.15877   1.16064   1.17908   1.19608
  Beta virt. eigenvalues --    1.20046   1.22977   1.24371   1.26839   1.28196
  Beta virt. eigenvalues --    1.29053   1.29620   1.31293   1.32556   1.34883
  Beta virt. eigenvalues --    1.35541   1.37055   1.37487   1.38437   1.40127
  Beta virt. eigenvalues --    1.40560   1.41533   1.42139   1.43201   1.43942
  Beta virt. eigenvalues --    1.44316   1.44619   1.44972   1.45606   1.46004
  Beta virt. eigenvalues --    1.46861   1.47027   1.47994   1.50124   1.50189
  Beta virt. eigenvalues --    1.50669   1.53338   1.54055   1.54411   1.54974
  Beta virt. eigenvalues --    1.56702   1.57913   1.65432   1.68089   1.69009
  Beta virt. eigenvalues --    1.69896   1.75297   1.77403   1.80317   1.81569
  Beta virt. eigenvalues --    1.83753   1.84039   1.85597   1.86638   1.86885
  Beta virt. eigenvalues --    1.88259   1.89818   1.90136   1.90495   1.91454
  Beta virt. eigenvalues --    1.92845   1.92999   1.93484   1.94206   1.94589
  Beta virt. eigenvalues --    1.94872   1.94883   1.95514   1.95627   1.96980
  Beta virt. eigenvalues --    1.97103   1.97725   1.98864   1.99645   2.01162
  Beta virt. eigenvalues --    2.01238   2.01795   2.03504   2.04888   2.06853
  Beta virt. eigenvalues --    2.08938   2.09995   2.10998   2.11441   2.11685
  Beta virt. eigenvalues --    2.13651   2.14003   2.14191   2.14550   2.15741
  Beta virt. eigenvalues --    2.15883   2.17239   2.17300   2.17734   2.19584
  Beta virt. eigenvalues --    2.23630   2.23703   2.28021   2.28167   2.30248
  Beta virt. eigenvalues --    2.30465   2.31267   2.33013   2.33666   2.34849
  Beta virt. eigenvalues --    2.35658   2.37080   2.39416   2.39960   2.40991
  Beta virt. eigenvalues --    2.44130   2.45531   2.46455   2.47224   2.48480
  Beta virt. eigenvalues --    2.48939   2.48989   2.50050   2.50490   2.50798
  Beta virt. eigenvalues --    2.52003   2.53275   2.53777   2.54804   2.55127
  Beta virt. eigenvalues --    2.57425   2.57923   2.64076   2.67796   2.69396
  Beta virt. eigenvalues --    2.72145   2.73347   2.77887   2.78670   2.79546
  Beta virt. eigenvalues --    2.81007   2.82121   2.82844   2.83589   2.83878
  Beta virt. eigenvalues --    2.84911   2.85798   2.88236   2.89210   2.90556
  Beta virt. eigenvalues --    2.90737   2.91310   2.91622   2.93147   2.94010
  Beta virt. eigenvalues --    2.94350   2.95292   2.97826   3.02325   3.04158
  Beta virt. eigenvalues --    3.05418   3.06642   3.07338   3.08155   3.08694
  Beta virt. eigenvalues --    3.10448   3.11929   3.13966   3.18872   3.19119
  Beta virt. eigenvalues --    3.19974   3.21571   3.21622   3.30871   3.31104
  Beta virt. eigenvalues --    3.37578   3.38706   3.41050   3.50087   3.53341
  Beta virt. eigenvalues --    3.61755   3.62460   3.66773   3.79919   3.83207
  Beta virt. eigenvalues --    3.93169
          Condensed to atoms (all electrons):
               1          2          3          4          5          6
     1  C    5.074225   0.298028   0.068614  -0.115259   0.061652   0.303739
     2  C    0.298028   5.092923   0.285717   0.036269  -0.115224   0.065799
     3  C    0.068614   0.285717   5.663748   0.282679   0.068786  -0.146924
     4  C   -0.115259   0.036269   0.282679   5.093440   0.299873   0.065725
     5  C    0.061652  -0.115224   0.068786   0.299873   5.072332   0.303745
     6  C    0.303739   0.065799  -0.146924   0.065725   0.303745   5.124716
     7  H    0.441517  -0.067459   0.014918  -0.001933   0.013493  -0.072838
     8  H   -0.057261   0.435017  -0.060701   0.012324  -0.001617   0.011684
     9  H   -0.001604   0.012291  -0.060968   0.435180  -0.057149   0.011695
    10  H    0.013493  -0.001929   0.014911  -0.067448   0.441549  -0.072814
    11  H   -0.066281   0.012893  -0.001559   0.012902  -0.066278   0.437528
    12  S    0.002927  -0.046951   0.196111  -0.047281   0.002867   0.000126
    13  O    0.001385   0.008396  -0.078373   0.003658  -0.000007  -0.000030
    14  O   -0.000007   0.003581  -0.078165   0.008415   0.001361  -0.000030
    15  C   -0.000789  -0.013381  -0.069425  -0.013660  -0.000795   0.000078
    16  C    0.000250   0.009005  -0.005608   0.000873  -0.000040  -0.000030
    17  C   -0.000037   0.000838  -0.005709   0.009171   0.000250  -0.000029
    18  C    0.000000   0.000444  -0.000851   0.000005  -0.000003   0.000003
    19  H    0.000183   0.001298  -0.000757  -0.000109  -0.000000   0.000003
    20  C   -0.000003   0.000006  -0.000873   0.000465   0.000001   0.000003
    21  H    0.000000  -0.000109  -0.000764   0.001261   0.000188   0.000003
    22  C    0.000004  -0.000073   0.000115  -0.000077   0.000004  -0.000001
    23  H   -0.000001   0.000000   0.000002   0.000002  -0.000000   0.000000
    24  H   -0.000000   0.000002   0.000002   0.000001  -0.000001   0.000000
    25  O    0.000000  -0.000000   0.000000  -0.000000   0.000000  -0.000000
    26  C   -0.000000  -0.000000   0.000000  -0.000000  -0.000000   0.000000
    27  C   -0.000000   0.000000   0.000000   0.000000  -0.000000  -0.000000
    28  C   -0.000000   0.000000   0.000000   0.000000  -0.000000   0.000000
    29  C    0.000000   0.000000  -0.000000   0.000000   0.000000  -0.000000
    30  H   -0.000000   0.000000  -0.000000   0.000000  -0.000000  -0.000000
    31  C    0.000000  -0.000000   0.000000  -0.000000   0.000000  -0.000000
    32  H    0.000000  -0.000000   0.000000  -0.000000   0.000000  -0.000000
    33  C    0.000000  -0.000000   0.000000  -0.000000   0.000000  -0.000000
    34  H    0.000000   0.000000  -0.000000   0.000000  -0.000000  -0.000000
    35  H   -0.000000   0.000000  -0.000000   0.000000  -0.000000   0.000000
    36  H   -0.000000   0.000000  -0.000000   0.000000  -0.000000   0.000000
               7          8          9         10         11         12
     1  C    0.441517  -0.057261  -0.001604   0.013493  -0.066281   0.002927
     2  C   -0.067459   0.435017   0.012291  -0.001929   0.012893  -0.046951
     3  C    0.014918  -0.060701  -0.060968   0.014911  -0.001559   0.196111
     4  C   -0.001933   0.012324   0.435180  -0.067448   0.012902  -0.047281
     5  C    0.013493  -0.001617  -0.057149   0.441549  -0.066278   0.002867
     6  C   -0.072838   0.011684   0.011695  -0.072814   0.437528   0.000126
     7  H    0.701997  -0.011200   0.000029  -0.000250  -0.012116  -0.000104
     8  H   -0.011200   0.644075  -0.000232   0.000029  -0.000204  -0.009624
     9  H    0.000029  -0.000232   0.644483  -0.011228  -0.000205  -0.009452
    10  H   -0.000250   0.000029  -0.011228   0.701899  -0.012112  -0.000104
    11  H   -0.012116  -0.000204  -0.000205  -0.012112   0.706174   0.000013
    12  S   -0.000104  -0.009624  -0.009452  -0.000104   0.000013  14.070492
    13  O   -0.000005   0.018620   0.000277   0.000001  -0.000000   0.427145
    14  O    0.000001   0.000281   0.018142  -0.000005  -0.000000   0.426732
    15  C    0.000018  -0.001278  -0.001386   0.000019   0.000000   0.319067
    16  C   -0.000012   0.001861  -0.000090   0.000000  -0.000000  -0.057456
    17  C    0.000000  -0.000092   0.002005  -0.000013  -0.000000  -0.057513
    18  C   -0.000002   0.000273  -0.000001  -0.000000   0.000000   0.003119
    19  H   -0.000006   0.000475  -0.000012  -0.000000   0.000000  -0.008094
    20  C   -0.000000  -0.000001   0.000293  -0.000002   0.000000   0.003129
    21  H   -0.000000  -0.000011   0.000494  -0.000006   0.000000  -0.008101
    22  C    0.000000   0.000004   0.000004   0.000000  -0.000000   0.000340
    23  H   -0.000000  -0.000005  -0.000000  -0.000000   0.000000  -0.000147
    24  H   -0.000000  -0.000000  -0.000006  -0.000000   0.000000  -0.000147
    25  O    0.000000  -0.000000  -0.000000   0.000000  -0.000000   0.000001
    26  C    0.000000  -0.000000  -0.000000   0.000000  -0.000000   0.000001
    27  C   -0.000000   0.000000   0.000000  -0.000000  -0.000000  -0.000000
    28  C   -0.000000  -0.000000  -0.000000  -0.000000   0.000000  -0.000001
    29  C   -0.000000   0.000000   0.000000  -0.000000   0.000000  -0.000000
    30  H   -0.000000   0.000000   0.000000  -0.000000   0.000000  -0.000000
    31  C    0.000000  -0.000000  -0.000000   0.000000  -0.000000   0.000000
    32  H    0.000000  -0.000000  -0.000000   0.000000  -0.000000   0.000013
    33  C    0.000000  -0.000000  -0.000000   0.000000  -0.000000   0.000000
    34  H   -0.000000   0.000000   0.000000  -0.000000   0.000000  -0.000000
    35  H   -0.000000   0.000000   0.000000  -0.000000   0.000000  -0.000000
    36  H   -0.000000   0.000000   0.000000  -0.000000   0.000000  -0.000000
              13         14         15         16         17         18
     1  C    0.001385  -0.000007  -0.000789   0.000250  -0.000037   0.000000
     2  C    0.008396   0.003581  -0.013381   0.009005   0.000838   0.000444
     3  C   -0.078373  -0.078165  -0.069425  -0.005608  -0.005709  -0.000851
     4  C    0.003658   0.008415  -0.013660   0.000873   0.009171   0.000005
     5  C   -0.000007   0.001361  -0.000795  -0.000040   0.000250  -0.000003
     6  C   -0.000030  -0.000030   0.000078  -0.000030  -0.000029   0.000003
     7  H   -0.000005   0.000001   0.000018  -0.000012   0.000000  -0.000002
     8  H    0.018620   0.000281  -0.001278   0.001861  -0.000092   0.000273
     9  H    0.000277   0.018142  -0.001386  -0.000090   0.002005  -0.000001
    10  H    0.000001  -0.000005   0.000019   0.000000  -0.000013  -0.000000
    11  H   -0.000000  -0.000000   0.000000  -0.000000  -0.000000   0.000000
    12  S    0.427145   0.426732   0.319067  -0.057456  -0.057513   0.003119
    13  O    8.229373  -0.028483  -0.076557   0.009385   0.003520   0.001308
    14  O   -0.028483   8.230331  -0.076669   0.003526   0.009294   0.000026
    15  C   -0.076557  -0.076669   5.870516   0.170496   0.171269   0.056682
    16  C    0.009385   0.003526   0.170496   5.198102   0.057578   0.311715
    17  C    0.003520   0.009294   0.171269   0.057578   5.197975  -0.096972
    18  C    0.001308   0.000026   0.056682   0.311715  -0.096972   5.125464
    19  H    0.015255   0.000180  -0.072467   0.434128   0.011707  -0.052101
    20  C    0.000026   0.001320   0.056590  -0.096982   0.311558   0.030534
    21  H    0.000179   0.015307  -0.072197   0.011683   0.433981  -0.001907
    22  C   -0.000028  -0.000029  -0.146387   0.071953   0.072026   0.251459
    23  H   -0.000005   0.000001   0.015131  -0.071748  -0.002762   0.440317
    24  H    0.000001  -0.000005   0.015129  -0.002751  -0.071632   0.016128
    25  O   -0.000000  -0.000000  -0.000066   0.005855   0.005876  -0.052891
    26  C    0.000000   0.000000   0.000140   0.000126   0.000115  -0.003267
    27  C   -0.000000  -0.000000  -0.000000   0.000004   0.000003  -0.000542
    28  C    0.000000   0.000000   0.000024  -0.000885  -0.000924  -0.000363
    29  C   -0.000000  -0.000000   0.000000  -0.000000  -0.000000   0.000026
    30  H    0.000000   0.000000  -0.000000  -0.000001  -0.000001  -0.000043
    31  C   -0.000000  -0.000000   0.000001   0.000036   0.000038  -0.000119
    32  H   -0.000000  -0.000000   0.000079   0.000358   0.000340   0.000886
    33  C   -0.000000  -0.000000   0.000000   0.000000   0.000001  -0.000025
    34  H    0.000000   0.000000  -0.000000   0.000000   0.000000  -0.000000
    35  H    0.000000   0.000000   0.000000  -0.000004  -0.000004   0.000011
    36  H    0.000000   0.000000  -0.000000  -0.000000  -0.000000   0.000000
              19         20         21         22         23         24
     1  C    0.000183  -0.000003   0.000000   0.000004  -0.000001  -0.000000
     2  C    0.001298   0.000006  -0.000109  -0.000073   0.000000   0.000002
     3  C   -0.000757  -0.000873  -0.000764   0.000115   0.000002   0.000002
     4  C   -0.000109   0.000465   0.001261  -0.000077   0.000002   0.000001
     5  C   -0.000000   0.000001   0.000188   0.000004  -0.000000  -0.000001
     6  C    0.000003   0.000003   0.000003  -0.000001   0.000000   0.000000
[...]
 Coeff-Com:  0.441D+01-0.341D+01
 Coeff:      0.143D-01 0.188D-01-0.111D+01-0.301D+01 0.280D+01 0.217D+01
 Coeff:      0.570D+01-0.434D+01-0.811D+01 0.470D+01-0.479D-01 0.124D+01
 Coeff:      0.441D+01-0.341D+01
 Gap=     0.167 Goal=   None    Shift=    0.000
 Gap=     0.281 Goal=   None    Shift=    0.000
 RMSDP=1.43D-04 MaxDP=1.00D-02 DE=-8.88D-07 OVMax= 3.75D-02

 Cycle 114  Pass 1  IDiag  1:
 RMSU=  4.38D-06    CP:  1.00D+00  3.00D+00  3.00D+00  3.00D+00  1.78D+00
                    CP: -3.00D+00 -3.00D+00 -3.00D+00  3.00D+00 -5.78D-02
                    CP: -3.00D+00  3.00D+00
 E= -1316.96278907245     Delta-E=       -0.000007643891 Rises=F Damp=F
 DIIS: error= 3.64D-05 at cycle  93 NSaved=  15.
 NSaved=15 IEnMin= 1 EnMin= -1316.96279226265     IErMin= 5 ErrMin= 1.77D-05
 ErrMax= 3.64D-05  0.00D+00 EMaxC= 1.00D-01 BMatC= 2.12D-06 BMatP= 4.35D-07
 IDIUse=1 WtCom= 1.00D+00 WtEn= 0.00D+00
 Coeff-Com: -0.109D-01 0.219D-01-0.124D+01-0.269D+01 0.279D+01 0.182D+01
 Coeff-Com:  0.621D+01-0.536D+01-0.992D+01 0.753D+01-0.146D+01 0.169D+01
 Coeff-Com:  0.637D+01-0.510D+01 0.378D+00
 Coeff:     -0.109D-01 0.219D-01-0.124D+01-0.269D+01 0.279D+01 0.182D+01
 Coeff:      0.621D+01-0.536D+01-0.992D+01 0.753D+01-0.146D+01 0.169D+01
 Coeff:      0.637D+01-0.510D+01 0.378D+00
 Gap=     0.167 Goal=   None    Shift=    0.000
 Gap=     0.282 Goal=   None    Shift=    0.000
 RMSDP=2.64D-05 MaxDP=1.86D-03 DE=-7.64D-06 OVMax= 6.91D-03

 Cycle 115  Pass 1  IDiag  1:
 RMSU=  2.48D-07    CP:  1.00D+00  3.00D+00  3.00D+00  3.00D+00  1.57D+00
                    CP: -3.00D+00 -3.00D+00 -3.00D+00  3.00D+00 -1.02D+00
                    CP: -3.00D+00  3.00D+00  3.69D-01
 E= -1316.96278761254     Delta-E=        0.000001459904 Rises=F Damp=F
 DIIS: error= 3.31D-05 at cycle  94 NSaved=  16.
 NSaved=16 IEnMin= 1 EnMin= -1316.96279226265     IErMin= 5 ErrMin= 1.77D-05
 ErrMax= 3.31D-05  0.00D+00 EMaxC= 1.00D-01 BMatC= 1.72D-06 BMatP= 4.35D-07
 IDIUse=1 WtCom= 1.00D+00 WtEn= 0.00D+00
 Coeff-Com: -0.441D-01 0.279D-01-0.146D+01-0.275D+01 0.318D+01 0.196D+01
 Coeff-Com:  0.570D+01-0.525D+01-0.912D+01 0.965D+01-0.416D+01 0.250D+01
 Coeff-Com:  0.458D+01-0.276D+01 0.408D+01-0.515D+01
 Coeff:     -0.441D-01 0.279D-01-0.146D+01-0.275D+01 0.318D+01 0.196D+01
 Coeff:      0.570D+01-0.525D+01-0.912D+01 0.965D+01-0.416D+01 0.250D+01
 Coeff:      0.458D+01-0.276D+01 0.408D+01-0.515D+01
 Gap=     0.167 Goal=   None    Shift=    0.000
 Gap=     0.284 Goal=   None    Shift=    0.000
 RMSDP=8.61D-05 MaxDP=6.03D-03 DE= 1.46D-06 OVMax= 2.25D-02

 Cycle 116  Pass 1  IDiag  1:
 RMSU=  1.72D-07    CP:  1.00D+00  3.00D+00  3.00D+00  3.00D+00  8.94D-01
                    CP:  1.94D+00 -1.10D+00  1.40D+00  9.27D-01  1.86D+00
                    CP:  1.61D-02  3.20D-01  5.01D-05  4.27D-02
 E= -1316.96278279899     Delta-E=        0.000004813548 Rises=F Damp=F
 DIIS: error= 3.19D-05 at cycle  95 NSaved=  17.
 NSaved=17 IEnMin= 1 EnMin= -1316.96279226265     IErMin= 5 ErrMin= 1.77D-05
 ErrMax= 3.19D-05  0.00D+00 EMaxC= 1.00D-01 BMatC= 1.58D-06 BMatP= 4.35D-07
 IDIUse=1 WtCom= 1.00D+00 WtEn= 0.00D+00
 Large coefficients: NSaved= 17 BigCof=   10.25 CofMax=   10.00 Det=-8.56D-12
 Inversion failed.  Reducing to 16 matrices.
 Coeff-Com:  0.897D-02 0.327D-01-0.488D+01 0.240D+01 0.499D+01-0.111D+01
 Coeff-Com:  0.302D+01 0.124D+01-0.328D+01 0.227D+00-0.805D+00 0.156D+01
 Coeff-Com: -0.861D+00 0.502D+01-0.810D+01 0.152D+01
 Coeff:      0.897D-02 0.327D-01-0.488D+01 0.240D+01 0.499D+01-0.111D+01
 Coeff:      0.302D+01 0.124D+01-0.328D+01 0.227D+00-0.805D+00 0.156D+01
 Coeff:     -0.861D+00 0.502D+01-0.810D+01 0.152D+01
 Gap=     0.168 Goal=   None    Shift=    0.000
 Gap=     0.285 Goal=   None    Shift=    0.000
 RMSDP=5.36D-05 MaxDP=3.72D-03 DE= 4.81D-06 OVMax= 1.40D-02

 Cycle 117  Pass 1  IDiag  1:
 RMSU=  1.07D-06    CP:  1.00D+00  3.00D+00  3.00D+00  3.00D+00  4.71D-01
                    CP:  3.00D+00  3.00D+00  3.00D+00  3.00D+00  3.00D+00
                    CP: -6.62D-03 -1.41D-01 -5.29D-02 -4.40D-01  1.96D+00
 E= -1316.96277992194     Delta-E=        0.000002877054 Rises=F Damp=F
 DIIS: error= 3.68D-05 at cycle  96 NSaved=  17.
 NSaved=17 IEnMin= 1 EnMin= -1316.96279226265     IErMin= 4 ErrMin= 1.77D-05
 ErrMax= 3.68D-05  0.00D+00 EMaxC= 1.00D-01 BMatC= 1.90D-06 BMatP= 4.35D-07
 IDIUse=1 WtCom= 1.00D+00 WtEn= 0.00D+00
 Coeff-Com: -0.568D-01 0.373D-01-0.797D+01 0.337D+01 0.648D+01 0.329D+01
 Coeff-Com: -0.196D+00-0.341D+01-0.396D+01 0.596D+01-0.313D+01 0.676D+01
 Coeff-Com: -0.657D+01 0.279D+01-0.564D+01 0.191D+01 0.134D+01
 Coeff:     -0.568D-01 0.373D-01-0.797D+01 0.337D+01 0.648D+01 0.329D+01
 Coeff:     -0.196D+00-0.341D+01-0.396D+01 0.596D+01-0.313D+01 0.676D+01
 Coeff:     -0.657D+01 0.279D+01-0.564D+01 0.191D+01 0.134D+01
 Gap=     0.168 Goal=   None    Shift=    0.000
 Gap=     0.280 Goal=   None    Shift=    0.000
 RMSDP=2.32D-04 MaxDP=1.63D-02 DE= 2.88D-06 OVMax= 6.08D-02

 Cycle 118  Pass 1  IDiag  1:
 RMSU=  2.41D-06    CP:  1.00D+00  3.00D+00  3.00D+00  3.00D+00  2.30D+00
                    CP: -3.00D+00 -3.00D+00 -1.46D+00  3.00D+00  3.00D+00
                    CP: -3.00D+00  3.00D+00  3.00D+00 -3.00D+00  3.00D+00
                    CP:  3.00D+00
 E= -1316.96279071345     Delta-E=       -0.000010791508 Rises=F Damp=F
 DIIS: error= 7.21D-05 at cycle  97 NSaved=  18.
 NSaved=18 IEnMin= 1 EnMin= -1316.96279226265     IErMin= 4 ErrMin= 1.77D-05
 ErrMax= 7.21D-05  0.00D+00 EMaxC= 1.00D-01 BMatC= 7.25D-06 BMatP= 4.35D-07
 IDIUse=1 WtCom= 1.00D+00 WtEn= 0.00D+00
 Coeff-Com: -0.603D-01 0.349D-01-0.795D+01 0.347D+01 0.641D+01 0.352D+01
 Coeff-Com: -0.647D+00-0.442D+01-0.293D+01 0.587D+01-0.327D+01 0.802D+01
 Coeff-Com: -0.778D+01 0.211D+01-0.473D+01 0.190D+01 0.136D+01 0.858D-01
 Coeff:     -0.603D-01 0.349D-01-0.795D+01 0.347D+01 0.641D+01 0.352D+01
 Coeff:     -0.647D+00-0.442D+01-0.293D+01 0.587D+01-0.327D+01 0.802D+01
 Coeff:     -0.778D+01 0.211D+01-0.473D+01 0.190D+01 0.136D+01 0.858D-01
 Gap=     0.169 Goal=   None    Shift=    0.000
 Gap=     0.280 Goal=   None    Shift=    0.000
 RMSDP=2.70D-05 MaxDP=1.92D-03 DE=-1.08D-05 OVMax= 7.05D-03

 Cycle 119  Pass 1  IDiag  1:
 RMSU=  9.21D-07    CP:  1.00D+00  3.00D+00  3.00D+00  3.00D+00  2.09D+00
                    CP: -3.00D+00 -3.00D+00  3.00D+00  3.00D+00  3.00D+00
                    CP: -3.00D+00  3.00D+00  2.41D+00 -3.00D+00  3.00D+00
                    CP:  3.00D+00  7.12D-01
 E= -1316.96278919239     Delta-E=        0.000001521061 Rises=F Damp=F
 DIIS: error= 6.74D-05 at cycle  98 NSaved=  19.
 NSaved=19 IEnMin= 1 EnMin= -1316.96279226265     IErMin= 4 ErrMin= 1.77D-05
 ErrMax= 6.74D-05  0.00D+00 EMaxC= 1.00D-01 BMatC= 6.64D-06 BMatP= 4.35D-07
 IDIUse=1 WtCom= 1.00D+00 WtEn= 0.00D+00
 Large coefficients: NSaved= 19 BigCof=   10.53 CofMax=   10.00 Det=-7.67D-12
 Inversion failed.  Reducing to 18 matrices.
 Large coefficients: NSaved= 18 BigCof=   12.42 CofMax=   10.00 Det=-7.83D-12
 Inversion failed.  Reducing to 17 matrices.
 Large coefficients: NSaved= 17 BigCof=   11.33 CofMax=   10.00 Det=-8.14D-12
 Inversion failed.  Reducing to 16 matrices.
 Large coefficients: NSaved= 16 BigCof=   17.40 CofMax=   10.00 Det=-1.00D-11
 Inversion failed.  Reducing to 15 matrices.
 Large coefficients: NSaved= 15 BigCof=   19.01 CofMax=   10.00 Det=-1.02D-11
 Inversion failed.  Reducing to 14 matrices.
 Large coefficients: NSaved= 14 BigCof=   16.16 CofMax=   10.00 Det=-1.02D-11
 Inversion failed.  Reducing to 13 matrices.
 Large coefficients: NSaved= 13 BigCof=   12.87 CofMax=   10.00 Det=-1.06D-11
 Inversion failed.  Reducing to 12 matrices.
 Coeff-Com: -0.667D-01 0.388D+01-0.399D+01-0.413D+01 0.658D+01-0.207D+01
 Coeff-Com:  0.281D+01 0.342D+01-0.556D+01 0.121D+01 0.718D+01-0.826D+01
 Coeff:     -0.667D-01 0.388D+01-0.399D+01-0.413D+01 0.658D+01-0.207D+01
 Coeff:      0.281D+01 0.342D+01-0.556D+01 0.121D+01 0.718D+01-0.826D+01
 Gap=     0.165 Goal=   None    Shift=    0.000
 Gap=     0.288 Goal=   None    Shift=    0.000
 RMSDP=3.45D-04 MaxDP=2.40D-02 DE= 1.52D-06 OVMax= 9.05D-02

 Cycle 120  Pass 1  IDiag  1:
 RMSU=  5.12D-07    CP:  1.00D+00  1.85D+00  5.68D-01 -4.38D-03  3.53D-04
                    CP: -2.82D+00  3.00D+00 -3.00D+00 -3.00D+00 -3.00D+00
                    CP:  1.00D+00  2.09D+00  3.04D-02 -8.69D-01 -9.16D-01
                    CP: -5.98D-01 -3.03D-03 -5.87D-02
 E= -1316.96277403736     Delta-E=        0.000015155023 Rises=F Damp=F
 DIIS: error= 7.84D-06 at cycle  99 NSaved=  13.
 NSaved=13 IEnMin= 1 EnMin= -1316.96279226265     IErMin=13 ErrMin= 7.84D-06
 ErrMax= 7.84D-06  0.00D+00 EMaxC= 1.00D-01 BMatC= 4.11D-08 BMatP= 1.07D-06
 IDIUse=1 WtCom= 1.00D+00 WtEn= 0.00D+00
 Coeff-Com: -0.767D-01-0.160D+01-0.468D+00 0.177D+01 0.893D+01-0.762D+01
 Coeff-Com:  0.357D+00-0.196D+00-0.231D+01 0.163D+01 0.550D+01-0.572D+01
 Coeff-Com:  0.807D+00
 Coeff:     -0.767D-01-0.160D+01-0.468D+00 0.177D+01 0.893D+01-0.762D+01
 Coeff:      0.357D+00-0.196D+00-0.231D+01 0.163D+01 0.550D+01-0.572D+01
 Coeff:      0.807D+00
 Gap=     0.170 Goal=   None    Shift=    0.000
 Gap=     0.293 Goal=   None    Shift=    0.000
 RMSDP=2.19D-04 MaxDP=1.43D-02 DE= 1.52D-05 OVMax= 5.71D-02

 Cycle 121  Pass 1  IDiag  1:
 RMSU=  1.30D-06    CP:  1.00D+00 -2.46D+00  3.00D+00  1.46D-01 -6.27D-03
                    CP: -3.00D+00 -3.00D+00  3.00D+00  3.00D+00  3.00D+00
                    CP: -3.00D+00  1.23D+00 -5.70D-02  3.00D+00  2.15D+00
                    CP:  1.09D+00  1.45D-03  1.03D-01 -1.45D+00
 E= -1316.96275976124     Delta-E=        0.000014276121 Rises=F Damp=F
 DIIS: error= 6.42D-05 at cycle 100 NSaved=  14.
 NSaved=14 IEnMin= 1 EnMin= -1316.96279226265     IErMin=13 ErrMin= 7.84D-06
 ErrMax= 6.42D-05  0.00D+00 EMaxC= 1.00D-01 BMatC= 5.56D-06 BMatP= 4.11D-08
 IDIUse=1 WtCom= 1.00D+00 WtEn= 0.00D+00
 Coeff-Com: -0.423D-01 0.387D+01-0.456D+01-0.582D+01 0.749D+01-0.104D+01
 Coeff-Com:  0.223D+01 0.252D+01-0.457D+01 0.103D+01-0.234D+01 0.267D+01
 Coeff-Com:  0.220D+00-0.667D+00
 Coeff:     -0.423D-01 0.387D+01-0.456D+01-0.582D+01 0.749D+01-0.104D+01
 Coeff:      0.223D+01 0.252D+01-0.457D+01 0.103D+01-0.234D+01 0.267D+01
 Coeff:      0.220D+00-0.667D+00
 Gap=     0.165 Goal=   None    Shift=    0.000
 Gap=     0.284 Goal=   None    Shift=    0.000
 RMSDP=3.93D-04 MaxDP=2.63D-02 DE= 1.43D-05 OVMax= 1.03D-01

 Cycle 122  Pass 1  IDiag  1:
 Restarting incremental Fock formation.
 E= -1316.96278127457     Delta-E=       -0.000021513325 Rises=F Damp=F
 DIIS: error= 4.21D-05 at cycle 101 NSaved=  15.
 NSaved=15 IEnMin= 1 EnMin= -1316.96279226265     IErMin=13 ErrMin= 7.84D-06
 ErrMax= 4.21D-05  0.00D+00 EMaxC= 1.00D-01 BMatC= 2.74D-06 BMatP= 4.11D-08
 IDIUse=1 WtCom= 1.00D+00 WtEn= 0.00D+00
 Coeff-Com: -0.807D-03-0.168D+01 0.902D+00 0.355D+01 0.325D+01-0.555D+01
 Coeff-Com: -0.665D+00-0.217D+01 0.150D+01 0.633D+00 0.306D+00-0.738D+00
 Coeff-Com:  0.423D+00-0.733D+00 0.197D+01
 Coeff:     -0.807D-03-0.168D+01 0.902D+00 0.355D+01 0.325D+01-0.555D+01
 Coeff:     -0.665D+00-0.217D+01 0.150D+01 0.633D+00 0.306D+00-0.738D+00
 Coeff:      0.423D+00-0.733D+00 0.197D+01
 Gap=     0.168 Goal=   None    Shift=    0.000
 Gap=     0.284 Goal=   None    Shift=    0.000
 RMSDP=7.70D-06 MaxDP=5.39D-04 DE=-2.15D-05 OVMax= 2.02D-03

 Cycle 123  Pass 1  IDiag  1:
 RMSU=  7.70D-06    CP:  1.00D+00
 E= -1316.96278134190     Delta-E=       -0.000000067328 Rises=F Damp=F
 DIIS: error= 4.65D-05 at cycle 102 NSaved=  16.
 NSaved=16 IEnMin= 1 EnMin= -1316.96279226265     IErMin=13 ErrMin= 7.84D-06
 ErrMax= 4.65D-05  0.00D+00 EMaxC= 1.00D-01 BMatC= 3.38D-06 BMatP= 4.11D-08
 IDIUse=1 WtCom= 1.00D+00 WtEn= 0.00D+00
 Coeff-Com: -0.397D-02-0.434D+01 0.363D+01 0.756D+01 0.378D+00-0.641D+01
 Coeff-Com: -0.214D+01-0.402D+01 0.414D+01 0.396D+00 0.308D+01-0.437D+01
 Coeff-Com:  0.484D+00-0.791D+00 0.219D+01 0.122D+01
 Coeff:     -0.397D-02-0.434D+01 0.363D+01 0.756D+01 0.378D+00-0.641D+01
 Coeff:     -0.214D+01-0.402D+01 0.414D+01 0.396D+00 0.308D+01-0.437D+01
 Coeff:      0.484D+00-0.791D+00 0.219D+01 0.122D+01
 Gap=     0.168 Goal=   None    Shift=    0.000
 Gap=     0.284 Goal=   None    Shift=    0.000
 RMSDP=8.96D-06 MaxDP=6.33D-04 DE=-6.73D-08 OVMax= 2.35D-03

 Cycle 124  Pass 1  IDiag  1:
 RMSU=  5.84D-07    CP:  1.00D+00  2.16D+00
 E= -1316.96278160137     Delta-E=       -0.000000259471 Rises=F Damp=F
 DIIS: error= 4.89D-05 at cycle 103 NSaved=  17.
 NSaved=17 IEnMin= 1 EnMin= -1316.96279226265     IErMin=13 ErrMin= 7.84D-06
 ErrMax= 4.89D-05  0.00D+00 EMaxC= 1.00D-01 BMatC= 3.78D-06 BMatP= 4.11D-08
 IDIUse=1 WtCom= 1.00D+00 WtEn= 0.00D+00
 Coeff-Com: -0.575D-02-0.409D+01 0.339D+01 0.709D+01 0.571D+00-0.620D+01
 Coeff-Com: -0.200D+01-0.388D+01 0.396D+01 0.409D+00 0.298D+01-0.424D+01
 Coeff-Com:  0.475D+00-0.793D+00 0.213D+01 0.112D+01 0.112D+00
 Coeff:     -0.575D-02-0.409D+01 0.339D+01 0.709D+01 0.571D+00-0.620D+01
 Coeff:     -0.200D+01-0.388D+01 0.396D+01 0.409D+00 0.298D+01-0.424D+01
 Coeff:      0.475D+00-0.793D+00 0.213D+01 0.112D+01 0.112D+00
 Gap=     0.168 Goal=   None    Shift=    0.000
 Gap=     0.284 Goal=   None    Shift=    0.000
 RMSDP=1.36D-06 MaxDP=9.51D-05 DE=-2.59D-07 OVMax= 3.55D-04

 Cycle 125  Pass 1  IDiag  1:
 RMSU=  3.49D-08    CP:  1.00D+00  2.34D+00  1.26D+00
 E= -1316.96278166441     Delta-E=       -0.000000063044 Rises=F Damp=F
 DIIS: error= 4.90D-05 at cycle 104 NSaved=  18.
 NSaved=18 IEnMin= 1 EnMin= -1316.96279226265     IErMin=13 ErrMin= 7.84D-06
 ErrMax= 4.90D-05  0.00D+00 EMaxC= 1.00D-01 BMatC= 3.79D-06 BMatP= 4.11D-08
 IDIUse=1 WtCom= 1.00D+00 WtEn= 0.00D+00
 Coeff-Com: -0.594D-02-0.429D+01 0.360D+01 0.747D+01 0.295D+00-0.626D+01
 Coeff-Com: -0.214D+01-0.399D+01 0.413D+01 0.389D+00 0.322D+01-0.455D+01
 Coeff-Com:  0.479D+00-0.796D+00 0.216D+01 0.123D+01 0.169D+01-0.161D+01
 Coeff:     -0.594D-02-0.429D+01 0.360D+01 0.747D+01 0.295D+00-0.626D+01
 Coeff:     -0.214D+01-0.399D+01 0.413D+01 0.389D+00 0.322D+01-0.455D+01
 Coeff:      0.479D+00-0.796D+00 0.216D+01 0.123D+01 0.169D+01-0.161D+01
 Gap=     0.168 Goal=   None    Shift=    0.000
 Gap=     0.284 Goal=   None    Shift=    0.000
 RMSDP=2.99D-07 MaxDP=2.11D-05 DE=-6.30D-08 OVMax= 7.81D-05

 Cycle 126  Pass 1  IDiag  1:
 RMSU=  5.17D-09    CP:  1.00D+00  2.30D+00  1.20D+00  8.00D-01
 E= -1316.96278164899     Delta-E=        0.000000015423 Rises=F Damp=F
 DIIS: error= 4.90D-05 at cycle 105 NSaved=  19.
 NSaved=19 IEnMin= 1 EnMin= -1316.96279226265     IErMin=13 ErrMin= 7.84D-06
 ErrMax= 4.90D-05  0.00D+00 EMaxC= 1.00D-01 BMatC= 3.79D-06 BMatP= 4.11D-08
 IDIUse=1 WtCom= 1.00D+00 WtEn= 0.00D+00
 Coeff-Com: -0.374D-03-0.481D+01 0.417D+01 0.863D+01-0.271D+00-0.669D+01
 Coeff-Com: -0.241D+01-0.411D+01 0.425D+01 0.386D+00 0.318D+01-0.452D+01
 Coeff-Com:  0.490D+00-0.795D+00 0.230D+01 0.137D+01-0.343D+00 0.654D+01
 Coeff-Com: -0.637D+01
 Coeff:     -0.374D-03-0.481D+01 0.417D+01 0.863D+01-0.271D+00-0.669D+01
 Coeff:     -0.241D+01-0.411D+01 0.425D+01 0.386D+00 0.318D+01-0.452D+01
 Coeff:      0.490D+00-0.795D+00 0.230D+01 0.137D+01-0.343D+00 0.654D+01
 Coeff:     -0.637D+01
 Gap=     0.168 Goal=   None    Shift=    0.000
 Gap=     0.284 Goal=   None    Shift=    0.000
 RMSDP=3.96D-06 MaxDP=2.77D-04 DE= 1.54D-08 OVMax= 1.04D-03

 Cycle 127  Pass 1  IDiag  1:
 RMSU=  7.18D-08    CP:  1.00D+00  2.81D+00  2.04D+00  3.00D+00  1.20D+00
 E= -1316.96278184770     Delta-E=       -0.000000198718 Rises=F Damp=F
 DIIS: error= 4.91D-05 at cycle 106 NSaved=  20.
 NSaved=20 IEnMin= 1 EnMin= -1316.96279226265     IErMin=13 ErrMin= 7.84D-06
 ErrMax= 4.91D-05  0.00D+00 EMaxC= 1.00D-01 BMatC= 3.81D-06 BMatP= 4.11D-08
 IDIUse=1 WtCom= 1.00D+00 WtEn= 0.00D+00
 Coeff-Com: -0.242D-02-0.446D+01 0.379D+01 0.783D+01 0.206D+00-0.647D+01
 Coeff-Com: -0.218D+01-0.394D+01 0.401D+01 0.415D+00 0.302D+01-0.429D+01
 Coeff-Com:  0.487D+00-0.792D+00 0.222D+01 0.120D+01-0.129D+01 0.533D+01
 Coeff-Com: -0.274D+01-0.135D+01
 Coeff:     -0.242D-02-0.446D+01 0.379D+01 0.783D+01 0.206D+00-0.647D+01
 Coeff:     -0.218D+01-0.394D+01 0.401D+01 0.415D+00 0.302D+01-0.429D+01
 Coeff:      0.487D+00-0.792D+00 0.222D+01 0.120D+01-0.129D+01 0.533D+01
 Coeff:     -0.274D+01-0.135D+01
 Gap=     0.168 Goal=   None    Shift=    0.000
 Gap=     0.284 Goal=   None    Shift=    0.000
 RMSDP=6.22D-06 MaxDP=4.34D-04 DE=-1.99D-07 OVMax= 1.63D-03

 Cycle 128  Pass 1  IDiag  1:
 RMSU=  1.62D-08    CP:  1.00D+00  2.01D+00  7.12D-01 -1.68D+00 -7.52D-01
                    CP: -6.17D-02
 E= -1316.96278153443     Delta-E=        0.000000313273 Rises=F Damp=F
 DIIS: error= 4.90D-05 at cycle 107 NSaved=  20.
 NSaved=20 IEnMin= 1 EnMin= -1316.96279226265     IErMin=13 ErrMin= 7.84D-06
 ErrMax= 4.90D-05  0.00D+00 EMaxC= 1.00D-01 BMatC= 3.79D-06 BMatP= 4.11D-08
 IDIUse=1 WtCom= 1.00D+00 WtEn= 0.00D+00
 Large coefficients: NSaved= 20 BigCof=   37.75 CofMax=   10.00 Det=-9.64D-14
 Inversion failed.  Reducing to 19 matrices.
 Large coefficients: NSaved= 19 BigCof=   88.25 CofMax=   10.00 Det=-1.13D-13
 Inversion failed.  Reducing to 18 matrices.
 Large coefficients: NSaved= 18 BigCof=   25.20 CofMax=   10.00 Det=-1.37D-13
 Inversion failed.  Reducing to 17 matrices.
 Large coefficients: NSaved= 17 BigCof=   37.75 CofMax=   10.00 Det=-1.55D-13
 Inversion failed.  Reducing to 16 matrices.
 Large coefficients: NSaved= 16 BigCof=   43.13 CofMax=   10.00 Det=-1.56D-13
 Inversion failed.  Reducing to 15 matrices.
 Large coefficients: NSaved= 15 BigCof=   41.01 CofMax=   10.00 Det=-1.57D-13
 Inversion failed.  Reducing to 14 matrices.
 Large coefficients: NSaved= 14 BigCof=   34.49 CofMax=   10.00 Det=-5.41D-13
 Inversion failed.  Reducing to 13 matrices.
 Large coefficients: NSaved= 13 BigCof=   33.18 CofMax=   10.00 Det=-5.43D-13
 Inversion failed.  Reducing to 12 matrices.
 Large coefficients: NSaved= 12 BigCof=   31.37 CofMax=   10.00 Det=-1.86D-12
 Inversion failed.  Reducing to 11 matrices.
 Large coefficients: NSaved= 11 BigCof=   20.05 CofMax=   10.00 Det=-3.65D-12
 Inversion failed.  Reducing to 10 matrices.
 Large coefficients: NSaved= 10 BigCof=   18.63 CofMax=   10.00 Det=-3.66D-12
 Inversion failed.  Reducing to  9 matrices.
 Large coefficients: NSaved=  9 BigCof=   19.86 CofMax=   10.00 Det=-3.67D-12
 Inversion failed.  Reducing to  8 matrices.
 Large coefficients: NSaved=  8 BigCof=   20.96 CofMax=   10.00 Det=-3.80D-12
 Inversion failed.  Reducing to  7 matrices.
 Large coefficients: NSaved=  7 BigCof=   29.13 CofMax=   10.00 Det=-4.14D-12
 Inversion failed.  Reducing to  6 matrices.
 Large coefficients: NSaved=  6 BigCof=   31.77 CofMax=   10.00 Det=-4.15D-12
 Inversion failed.  Reducing to  5 matrices.
 Large coefficients: NSaved=  5 BigCof=   91.87 CofMax=   10.00 Det=-5.22D-12
 Inversion failed.  Reducing to  4 matrices.
 Large coefficients: NSaved=  4 BigCof=  189.74 CofMax=   10.00 Det=-2.40D-11
 Inversion failed.  Reducing to  3 matrices.
 Large coefficients: NSaved=  3 BigCof=   70.99 CofMax=   10.00 Det=-4.99D-11
 Inversion failed.  Reducing to  2 matrices.
 Large coefficients: NSaved=  2 BigCof=   85.42 CofMax=   10.00 Det=-1.15D-10
 Coeff-Com: -0.844D+02 0.854D+02
 Coeff:     -0.844D+02 0.854D+02
 Gap=     0.169 Goal=   None    Shift=    0.000
 Gap=     0.295 Goal=   None    Shift=    0.000
 RMSDP=5.10D-04 MaxDP=3.40D-02 DE= 3.13D-07 OVMax= 1.34D-01

 >>>>>>>>>> Convergence criterion not met.
 SCF Done:  E(UwB97XD) =  -1316.96278153     A.U. after  129 cycles
            NFock=128  Conv=0.51D-03     -V/T= 2.0082
 <Sx>= 0.0000 <Sy>= 0.0000 <Sz>= 0.5000 <S**2>= 0.7772 S= 0.5135
 <L.S>= 0.000000000000E+00
 KE= 1.306304111281D+03 PE=-6.605720596735D+03 EE= 2.230111983855D+03
 Annihilation of the first spin contaminant:
 S**2 before annihilation     0.7772,   after     0.7503
 Convergence failure -- run terminated.
 Error termination via Lnk1e in /home/chenh/prog/g16-A03/g16/l502.exe at Mon Jan 12 17:56:30 2026.
 Job cpu time:       0 days 11 hours 59 minutes  4.1 seconds.
 Elapsed time:       0 days  0 hours 11 minutes 18.9 seconds.
 File lengths (MBytes):  RWF=    164 Int=      0 D2E=      0 Chk=     14 Scr=      1
